  ABINIT 
  
  Give name for formatted input file: 
/home/users/y/g/ygillet/MySims/input/test1.in
  Give name for formatted output file:
/home/users/y/g/ygillet/MySims/output/test1.out
  Give root name for generic input files:
/home/users/y/g/ygillet/MySims/wholedata/test1/test1i
  Give root name for generic output files:
/home/users/y/g/ygillet/MySims/wholedata/test1/test1o
  Give root name for generic temporary files:
/home/users/y/g/ygillet/MySims/wholedata/test1/test1

.Version 7.5.4 of ABINIT 
.(MPI version, prepared for a x86_64_linux_intel13.0 computer) 

.Copyright (C) 1998-2013 ABINIT group . 
 ABINIT comes with ABSOLUTELY NO WARRANTY.
 It is free software, and you are welcome to redistribute it
 under certain conditions (GNU General Public License,
 see ~abinit/COPYING or http://www.gnu.org/copyleft/gpl.txt).

 ABINIT is a project of the Universite Catholique de Louvain,
 Corning Inc. and other collaborators, see ~abinit/doc/developers/contributors.txt .
 Please read ~abinit/doc/users/acknowledgments.html for suggested
 acknowledgments of the ABINIT effort.
 For more information, see http://www.abinit.org .

.Starting date : Sat 11 Jan 2014.
- ( at 18h49 )
  
 
 ++++++++++++++++++++++++++++++++++++++++++++++++++++++++++++++++++++++++++++++
 
 === Build Information === 
  Version       : 7.5.4
  Build target  : x86_64_linux_intel13.0
  Build date    : 20131223
 
 === Compiler Suite === 
  C compiler       : intel13.0
  CFLAGS           :  -g  -vec-report0
  C++ compiler     : gnu4.4
  CXXFLAGS         : -m64 -g
  Fortran compiler : intel13.0
  FCFLAGS          :  -g -extend-source -vec-report0 -noaltparam -nofpscomp  -openmp
  FC_LDFLAGS       :    -static-intel -static-libgcc
 
 === Optimizations === 
  Debug level        : basic
  Optimization level : yes
  Architecture       : intel_xeon
 
 === MPI === 
  Parallel build : yes
  Parallel I/O   : yes
  Time tracing   : no
  GPU support    : no
 
 === Connectors / Fallbacks === 
  Connectors on : yes
  Fallbacks on  : yes
  DFT flavor    : libxc-fallback
  FFT flavor    : dfti-threads
  LINALG flavor : mkl
  MATH flavor   : none
  TIMER flavor  : abinit
  TRIO flavor   : netcdf+etsf_io-fallback
 
 === Experimental features === 
  Bindings            : no
  Exports             : no
  GW double-precision : yes
 
 === Bazaar branch information === 
  Branch ID : gmatteo@gmac-20131112203115-jsw9xqpvcl3x1yax
  Revision  : 506
  Committed : 0
 
 ++++++++++++++++++++++++++++++++++++++++++++++++++++++++++++++++++++++++++++++
 

 ++++++++++++++++++++++++++++++++++++++++++++++++++++++++++++++++++++++++++++++
 Default optimizations:
   -O2


 ++++++++++++++++++++++++++++++++++++++++++++++++++++++++++++++++++++++++++++++


 ++++++++++++++++++++++++++++++++++++++++++++++++++++++++++++++++++++++++++++++
 CPP options activated during the build:

                  CC_INTEL                   CXX_GNU                  FC_INTEL

           HAVE_BZR_BRANCH                 HAVE_CLIB            HAVE_DFT_LIBXC

 HAVE_FC_ALLOCATABLE_DT...        HAVE_FC_CONTIGUOUS           HAVE_FC_CPUTIME

             HAVE_FC_ETIME              HAVE_FC_EXIT             HAVE_FC_FLUSH

             HAVE_FC_GAMMA            HAVE_FC_GETENV            HAVE_FC_GETPID

             HAVE_FC_IOMSG     HAVE_FC_ISO_C_BINDING        HAVE_FC_LONG_LINES

              HAVE_FC_NULL         HAVE_FC_STREAM_IO            HAVE_FC_SYSTEM

                  HAVE_FFT             HAVE_FFT_DFTI     HAVE_FFT_DFTI_THREADS

              HAVE_FFT_MPI           HAVE_FFT_SERIAL               HAVE_GW_DPC

        HAVE_LIBPAW_ABINIT               HAVE_LINALG         HAVE_LINALG_AXPBY

        HAVE_LINALG_GEMM3M  HAVE_LINALG_MKL_IMATCOPY   HAVE_LINALG_MKL_OMATADD

  HAVE_LINALG_MKL_OMATCOPY        HAVE_LINALG_SERIAL                  HAVE_MPI

                 HAVE_MPI2               HAVE_MPI_IO HAVE_MPI_TYPE_CREATE_S...

                HAVE_NUMPY         HAVE_OMP_COLLAPSE               HAVE_OPENMP

             HAVE_OS_LINUX                HAVE_TIMER         HAVE_TIMER_ABINIT

            HAVE_TIMER_MPI         HAVE_TIMER_SERIAL         HAVE_TRIO_ETSF_IO

          HAVE_TRIO_NETCDF              USE_MACROAVE
 ++++++++++++++++++++++++++++++++++++++++++++++++++++++++++++++++++++++++++++++

- input  file    -> /home/users/y/g/ygillet/MySims/input/test1.in
- output file    -> /home/users/y/g/ygillet/MySims/output/test1.out
- root for input  files -> /home/users/y/g/ygillet/MySims/wholedata/test1/test1i
- root for output files -> /home/users/y/g/ygillet/MySims/wholedata/test1/test1o

-instrng :    44 lines of input have been read from file /home/users/y/g/ygillet/MySims/input/test1.in


 iofn2 : Please give name of formatted atomic psp file
 iofn2 : for atom type   1 , psp file is /home/users/y/g/ygillet/MySims/pseudopot/03-Li.LDA.fhi

 iofn2 : Please give name of formatted atomic psp file
 iofn2 : for atom type   2 , psp file is /home/users/y/g/ygillet/MySims/pseudopot/41-Nb.LDA.fhi

 iofn2 : Please give name of formatted atomic psp file
 iofn2 : for atom type   3 , psp file is /home/users/y/g/ygillet/MySims/pseudopot/08-O.LDA.fhi
  read the values zionpsp=  1.0 , pspcod=   6 , lmax=   3
  read the values zionpsp=  5.0 , pspcod=   6 , lmax=   3
  read the values zionpsp=  6.0 , pspcod=   6 , lmax=   3

 inpspheads : deduce mpsang  =   4, n1xccc  =2501.

 invars1m : enter jdtset=     0
 invars1 : treat image number     1
 ingeo : use angdeg to generate rprim.

 symlatt : the Bravais lattice is hR (rhombohedral)
  xred   is defined in input file
 ingeo : takes atomic coordinates from input array xred

 symlatt : the Bravais lattice is hR (rhombohedral)

 symlatt : the Bravais lattice is hR (rhombohedral)
 symspgr : spgroup= 161  R3 c   (=C3v^6)
 getkgrid : length of smallest supercell vector (bohr)=    1.946833E+01
       Simple Lattice Grid
 symkpt : found identity, with number  1
 getkgrid : length of smallest supercell vector (bohr)=    1.946833E+01
       Simple Lattice Grid
 symkpt : found identity, with number  1
  dtset%nelect=   48.0000000000000     
 chkneu : initialized the occupation numbers for occopt=    1
    spin-unpolarized case :
  2.00  2.00  2.00  2.00  2.00  2.00  2.00  2.00  2.00  2.00  2.00  2.00
  2.00  2.00  2.00  2.00  2.00  2.00  2.00  2.00  2.00  2.00  2.00  2.00
  0.00  0.00  0.00  0.00  0.00  0.00  0.00  0.00  0.00  0.00  0.00  0.00
  0.00  0.00  0.00  0.00  0.00  0.00
  mpi_setup : enter 
 getmpw sequential formula gave:      775

 Computing all possible proc distrib for this input with nproc less than 4
     npimage|       npkpt|    npspinor|       npfft|      npband|     bandpp |       nproc|      weight|
   1 ->    1|   1 ->    2|   1 ->    1|   1 ->    4|   1 ->    4|   1 ->    4|   2 ->    4|   1 ->    4|
           1|           2|           1|           2|           1|           1|           4|       3.55 |
           1|           2|           1|           1|           2|           1|           4|       3.55 |
           1|           1|           1|           4|           1|           1|           4|       3.31 |
           1|           1|           1|           2|           2|           1|           4|       3.31 |
           1|           1|           1|           3|           1|           1|           3|       2.55 |
npfft, npband, npspinor and npkpt:     2    1    1    2
mpi_setup: mkmem  undefined in the input file.Use default mkmem  = nkpt
 mpi_setup: With nkpt_me=1 and mkmem  = 2, ground state wf handled in core.
 Resetting mkmem  to nkpt_me to save memory space.
mpi_setup: mkqmem undefined in the input file.Use default mkqmem = nkpt
 mpi_setup: With nkpt_me=1 and mkqmem = 2, ground state wf handled in core.
 Resetting mkqmem to nkpt_me to save memory space.
mpi_setup: mk1mem undefined in the input file.Use default mk1mem = nkpt
 mpi_setup: With nkpt_me=1 and mk1mem = 2, ground state wf handled in core.
 Resetting mk1mem to nkpt_me to save memory space.

--- !WARNING
message: |
    The second and third dimension of the FFT grid: 0, 0
    were imposed to be multiple of the number of processors for the FFT: 2
src_file: getng.F90
src_line: 200
...

 For input ecut=  8.000000E+00 best grid ngfft=      30      30      30
       max ecut=  1.029956E+01

 ==== FFT mesh ====
  FFT mesh divisions ........................    30   30   30
  Augmented FFT divisions ...................    31   31   30
  FFT algorithm .............................   401
  FFT cache size ............................    16
 Relative gap for number of plane waves between process:     0.04
 Relative gap for number of plane waves between process:     0.01
 getmpw: optimal value of mpw=     403

 Symmetries : space group R3 c (#161); Bravais hR (rhombohedral)

 getdim_nloc : deduce lmnmax  =  16, lnmax  =   4,
                      lmnmaxso=  16, lnmaxso=   4.
 memory : analysis of memory needs
================================================================================
 Values of the parameters that define the memory need of the present run
   intxc =         0  ionmov =         0    iscf =         7 xclevel =         1
  lmnmax =         4   lnmax =         4   mband =        42  mffmem =         1
P  mgfft =        30   mkmem =         1 mpssoang=         4     mpw =       403
  mqgrid =      3001   natom =        10    nfft =     13500    nkpt =         2
  nloalg =         4  nspden =         1 nspinor =         1  nsppol =         1
    nsym =         6  n1xccc =      2501  ntypat =         3  occopt =         1
================================================================================
P This job should need less than                       6.406 Mbytes of memory.
  Rough estimation (10% accuracy) of disk space for files :
_ WF disk file :      1.035 Mbytes ; DEN or POT disk file :      0.105 Mbytes.
================================================================================

 Biggest array : f_fftgr(disk), with      1.6499 MBytes.
 memana : allocated an array of      1.650 Mbytes, for testing purposes.
 memana : allocated       6.406 Mbytes, for testing purposes.
 The job will continue.
--------------------------------------------------------------------------------
------------- Echo of variables that govern the present computation ------------
--------------------------------------------------------------------------------
-
- outvars: echo of selected default values                                      
-   accesswff0 =  0 , fftalg0 =512 , wfoptalg0 =  0
-
- outvars: echo of global parameters not present in the input file              
-  max_nthreads =    1
-
 -outvars: echo values of preprocessed input variables --------
 
 These variables are accessible in NetCDF format (
 /home/users/y/g/ygillet/MySims/wholedata/test1/test1o_OUT.nc)

        accesswff           1
            acell      1.0391549200E+01  1.0391549200E+01  1.0391549200E+01 Bohr
              amu      9.29063800E+01  6.94100000E+00  1.59994000E+01
           diemac      1.00000000E+01
             ecut      8.00000000E+00 Hartree
           ecutsm      5.00000000E-01 Hartree
           fftalg         401
      fft_opt_lob           2
           iprcch           6
              ixc           7
              kpt      2.50000000E-01  2.50000000E-01  2.50000000E-01
                      -2.50000000E-01  2.50000000E-01  2.50000000E-01
         kptrlatt        2    0    0      0    2    0      0    0    2
          kptrlen      1.94683329E+01
P           mkmem           1
            natom          10
            nband          42
           nbdbuf           2
            ngfft          30      30      30
             nkpt           2
            npfft           2
-           npkpt           2
            nstep         100
             nsym           6
           ntypat           3
              occ      2.000000  2.000000  2.000000  2.000000  2.000000  2.000000
                       2.000000  2.000000  2.000000  2.000000  2.000000  2.000000
                       2.000000  2.000000  2.000000  2.000000  2.000000  2.000000
                       2.000000  2.000000  2.000000  2.000000  2.000000  2.000000
                       0.000000  0.000000  0.000000  0.000000  0.000000  0.000000
                       0.000000  0.000000  0.000000  0.000000  0.000000  0.000000
                       0.000000  0.000000  0.000000  0.000000  0.000000  0.000000
           ortalg          -2
        paral_kgb           1
            rprim      5.4082634987E-01  0.0000000000E+00  8.4113426947E-01
                      -2.7041317494E-01  4.6836935803E-01  8.4113426947E-01
                      -2.7041317494E-01 -4.6836935803E-01  8.4113426947E-01
           shiftk      5.00000000E-01  5.00000000E-01  5.00000000E-01
          spgroup         161
           symrel      1  0  0   0  1  0   0  0  1       0  1  0   1  0  0   0  0  1
                       0  0  1   1  0  0   0  1  0       1  0  0   0  0  1   0  1  0
                       0  1  0   0  0  1   1  0  0       0  0  1   0  1  0   1  0  0
            tnons      0.0000000  0.0000000  0.0000000     0.5000000  0.5000000  0.5000000
                       0.0000000  0.0000000  0.0000000     0.5000000  0.5000000  0.5000000
                       0.0000000  0.0000000  0.0000000     0.5000000  0.5000000  0.5000000
           toldfe      1.00000000E-12 Hartree
            typat      1  1  2  2  3  3  3  3  3  3
         wfoptalg          14
              wtk        0.25000    0.75000
           xangst      0.0000000000E+00  0.0000000000E+00  0.0000000000E+00
                       0.0000000000E+00  0.0000000000E+00  6.9380594306E+00
                       0.0000000000E+00  0.0000000000E+00  3.9255540258E+00
                       0.0000000000E+00  0.0000000000E+00  1.0863613456E+01
                      -1.5292397120E+00 -6.3683896031E-01  7.8279811869E+00
                       1.3161385738E+00 -1.0059409589E+00  7.8279811869E+00
                       2.1310113826E-01  1.6427799192E+00  7.8279811869E+00
                      -1.2738930683E+00  9.3276959717E-01  5.5152947101E+00
                      -1.7085563285E-01 -1.5696085575E+00  5.5152947101E+00
                       1.4447487012E+00  6.3683896031E-01  5.5152947101E+00
            xcart      0.0000000000E+00  0.0000000000E+00  0.0000000000E+00
                       0.0000000000E+00  0.0000000000E+00  1.3111032218E+01
                       0.0000000000E+00  0.0000000000E+00  7.4182220287E+00
                       0.0000000000E+00  0.0000000000E+00  2.0529254246E+01
                      -2.8898442472E+00 -1.2034512257E+00  1.4792740617E+01
                       2.4871414573E+00 -1.9009529182E+00  1.4792740617E+01
                       4.0270278992E-01  3.1044041440E+00  1.4792740617E+01
                      -2.4073090218E+00  1.7626790837E+00  1.0422396544E+01
                      -3.2287035435E-01 -2.9661303095E+00  1.0422396544E+01
                       2.7301793761E+00  1.2034512257E+00  1.0422396544E+01
             xred      0.0000000000E+00  0.0000000000E+00  0.0000000000E+00
                       5.0000000000E-01  5.0000000000E-01  5.0000000000E-01
                       2.8290000000E-01  2.8290000000E-01  2.8290000000E-01
                       7.8290000000E-01  7.8290000000E-01  7.8290000000E-01
                       2.2133000000E-01  6.1190333300E-01  8.5916666700E-01
                       8.5916666700E-01  2.2133000000E-01  6.1190333300E-01
                       6.1190333300E-01  8.5916666700E-01  2.2133000000E-01
                       1.1190333300E-01  7.2133000000E-01  3.5916666700E-01
                       3.5916666700E-01  1.1190333300E-01  7.2133000000E-01
                       7.2133000000E-01  3.5916666700E-01  1.1190333300E-01
            znucl       41.00000    3.00000    8.00000

================================================================================

 chkinp: machine precision is   2.2204460492503131E-16

 chkinp: Checking input parameters for consistency.

--- !ERROR
message: |
    For pseudopotential     1  znucl from user input file=   4.1000E+01
      while znucl from pseudopotential file=  3.0000E+00
      Action : check znucl in input file, or check psp file. They must agree.                                                                                                                                                                                                                                                                                                                ki
src_file: chkinp.F90
src_line: 2831
...


--- !ERROR
message: |
    For pseudopotential     2  znucl from user input file=   3.0000E+00
      while znucl from pseudopotential file=  4.1000E+01
      Action : check znucl in input file, or check psp file. They must agree.                                                                                                                                                                                                                                                                                                                ki
src_file: chkinp.F90
src_line: 2831
...

 DATA TYPE INFORMATION: 
 REAL:      Data type name: REAL(DP) 
            Kind value:      8
            Precision:      15
            Smallest nonnegligible quantity relative to 1:  0.22204460E-15
            Smallest positive number:                       0.22250739-307
            Largest representable number:                   0.17976931+309
 INTEGER:   Data type name: INTEGER(default) 
            Kind value: 4
            Bit size:   32
            Largest representable number: 2147483647
 LOGICAL:   Data type name: LOGICAL 
            Kind value: 4
 CHARACTER: Data type name: CHARACTER             Kind value: 1
  ==== Using MPI-2 specifications ==== 
  MPI-IO support is ON
  xmpi_tag_ub ................   2147483647
  xmpi_bsize_ch ..............            1
  xmpi_bsize_int .............            4
  xmpi_bsize_sp ..............            4
  xmpi_bsize_dp ..............            8
  xmpi_bsize_spc .............            8
  xmpi_bsize_dpc .............           16
  xmpio_bsize_frm ............            4
  xmpi_address_kind ..........            8
  xmpi_offset_kind ...........            8
  MPI_WTICK ..................   1.000000000000000E-006
 
 ++++++++++++++++++++++++++++++++++++++++++++++++++++++++++++++++++++++++++++++
 
 === Build Information === 
  Version       : 7.5.4
  Build target  : x86_64_linux_intel13.0
  Build date    : 20131223
 
 === Compiler Suite === 
  C compiler       : intel13.0
  CFLAGS           :  -g  -vec-report0
  C++ compiler     : gnu4.4
  CXXFLAGS         : -m64 -g
  Fortran compiler : intel13.0
  FCFLAGS          :  -g -extend-source -vec-report0 -noaltparam -nofpscomp  -openmp
  FC_LDFLAGS       :    -static-intel -static-libgcc
 
 === Optimizations === 
  Debug level        : basic
  Optimization level : yes
  Architecture       : intel_xeon
 
 === MPI === 
  Parallel build : yes
  Parallel I/O   : yes
  Time tracing   : no
  GPU support    : no
 
 === Connectors / Fallbacks === 
  Connectors on : yes
  Fallbacks on  : yes
  DFT flavor    : libxc-fallback
  FFT flavor    : dfti-threads
  LINALG flavor : mkl
  MATH flavor   : none
  TIMER flavor  : abinit
  TRIO flavor   : netcdf+etsf_io-fallback
 
 === Experimental features === 
  Bindings            : no
  Exports             : no
  GW double-precision : yes
 
 === Bazaar branch information === 
  Branch ID : gmatteo@gmac-20131112203115-jsw9xqpvcl3x1yax
  Revision  : 506
  Committed : 0
 
 ++++++++++++++++++++++++++++++++++++++++++++++++++++++++++++++++++++++++++++++
 

--- !ERROR
message: |
    Checking consistency of input data against itself gave    2 inconsistencies.                                                                                                                                                                                                                                                                                                                                                                                                                                       i
src_file: chkinp.F90
src_line: 3000
...


 leave_new : decision taken to exit ...
calling XMPI_ABORT...
 MPI_ERROR_STRING: MPI_ERR_UNKNOWN: unknown error
--------------------------------------------------------------------------
MPI_ABORT was invoked on rank 0 in communicator MPI_COMM_WORLD 
with errorcode 14.

NOTE: invoking MPI_ABORT causes Open MPI to kill all MPI processes.
You may or may not see output from other processes, depending on
exactly when Open MPI kills them.
--------------------------------------------------------------------------
--------------------------------------------------------------------------
mpirun has exited due to process rank 1 with PID 29005 on
node mback022.cism.ucl.ac.be exiting improperly. There are two reasons this could occur:

1. this process did not call "init" before exiting, but others in
the job did. This can cause a job to hang indefinitely while it waits
for all processes to call "init". By rule, if one process calls "init",
then ALL processes must call "init" prior to termination.

2. this process called "init", but exited without calling "finalize".
By rule, all processes that call "init" MUST call "finalize" prior to
exiting or it will be considered an "abnormal termination"

This may have caused other processes in the application to be
terminated by signals sent by mpirun (as reported here).
--------------------------------------------------------------------------
[mback022.cism.ucl.ac.be:29003] 3 more processes have sent help message help-mpi-api.txt / mpi-abort
[mback022.cism.ucl.ac.be:29003] Set MCA parameter "orte_base_help_aggregate" to 0 to see all help / error messages
