
.Version 7.5.4 of ABINIT 
.(MPI version, prepared for a x86_64_linux_intel13.0 computer) 

.Copyright (C) 1998-2013 ABINIT group . 
 ABINIT comes with ABSOLUTELY NO WARRANTY.
 It is free software, and you are welcome to redistribute it
 under certain conditions (GNU General Public License,
 see ~abinit/COPYING or http://www.gnu.org/copyleft/gpl.txt).

 ABINIT is a project of the Universite Catholique de Louvain,
 Corning Inc. and other collaborators, see ~abinit/doc/developers/contributors.txt .
 Please read ~abinit/doc/users/acknowledgments.html for suggested
 acknowledgments of the ABINIT effort.
 For more information, see http://www.abinit.org .

.Starting date : Sat 11 Jan 2014.
- ( at 18h49 )
  
- input  file    -> /home/users/y/g/ygillet/MySims/input/test1.in
- output file    -> /home/users/y/g/ygillet/MySims/output/test1.out
- root for input  files -> /home/users/y/g/ygillet/MySims/wholedata/test1/test1i
- root for output files -> /home/users/y/g/ygillet/MySims/wholedata/test1/test1o


 Symmetries : space group R3 c (#161); Bravais hR (rhombohedral)
================================================================================
 Values of the parameters that define the memory need of the present run
   intxc =         0  ionmov =         0    iscf =         7 xclevel =         1
  lmnmax =         4   lnmax =         4   mband =        42  mffmem =         1
P  mgfft =        30   mkmem =         1 mpssoang=         4     mpw =       403
  mqgrid =      3001   natom =        10    nfft =     13500    nkpt =         2
  nloalg =         4  nspden =         1 nspinor =         1  nsppol =         1
    nsym =         6  n1xccc =      2501  ntypat =         3  occopt =         1
================================================================================
P This job should need less than                       6.406 Mbytes of memory.
  Rough estimation (10% accuracy) of disk space for files :
_ WF disk file :      1.035 Mbytes ; DEN or POT disk file :      0.105 Mbytes.
================================================================================

--------------------------------------------------------------------------------
------------- Echo of variables that govern the present computation ------------
--------------------------------------------------------------------------------
-
- outvars: echo of selected default values                                      
-   accesswff0 =  0 , fftalg0 =512 , wfoptalg0 =  0
-
- outvars: echo of global parameters not present in the input file              
-  max_nthreads =    1
-
 -outvars: echo values of preprocessed input variables --------
        accesswff           1
            acell      1.0391549200E+01  1.0391549200E+01  1.0391549200E+01 Bohr
              amu      9.29063800E+01  6.94100000E+00  1.59994000E+01
           diemac      1.00000000E+01
             ecut      8.00000000E+00 Hartree
           ecutsm      5.00000000E-01 Hartree
           fftalg         401
      fft_opt_lob           2
           iprcch           6
              ixc           7
              kpt      2.50000000E-01  2.50000000E-01  2.50000000E-01
                      -2.50000000E-01  2.50000000E-01  2.50000000E-01
         kptrlatt        2    0    0      0    2    0      0    0    2
          kptrlen      1.94683329E+01
P           mkmem           1
            natom          10
            nband          42
           nbdbuf           2
            ngfft          30      30      30
             nkpt           2
            npfft           2
-           npkpt           2
            nstep         100
             nsym           6
           ntypat           3
              occ      2.000000  2.000000  2.000000  2.000000  2.000000  2.000000
                       2.000000  2.000000  2.000000  2.000000  2.000000  2.000000
                       2.000000  2.000000  2.000000  2.000000  2.000000  2.000000
                       2.000000  2.000000  2.000000  2.000000  2.000000  2.000000
                       0.000000  0.000000  0.000000  0.000000  0.000000  0.000000
                       0.000000  0.000000  0.000000  0.000000  0.000000  0.000000
                       0.000000  0.000000  0.000000  0.000000  0.000000  0.000000
           ortalg          -2
        paral_kgb           1
            rprim      5.4082634987E-01  0.0000000000E+00  8.4113426947E-01
                      -2.7041317494E-01  4.6836935803E-01  8.4113426947E-01
                      -2.7041317494E-01 -4.6836935803E-01  8.4113426947E-01
           shiftk      5.00000000E-01  5.00000000E-01  5.00000000E-01
          spgroup         161
           symrel      1  0  0   0  1  0   0  0  1       0  1  0   1  0  0   0  0  1
                       0  0  1   1  0  0   0  1  0       1  0  0   0  0  1   0  1  0
                       0  1  0   0  0  1   1  0  0       0  0  1   0  1  0   1  0  0
            tnons      0.0000000  0.0000000  0.0000000     0.5000000  0.5000000  0.5000000
                       0.0000000  0.0000000  0.0000000     0.5000000  0.5000000  0.5000000
                       0.0000000  0.0000000  0.0000000     0.5000000  0.5000000  0.5000000
           toldfe      1.00000000E-12 Hartree
            typat      1  1  2  2  3  3  3  3  3  3
         wfoptalg          14
              wtk        0.25000    0.75000
           xangst      0.0000000000E+00  0.0000000000E+00  0.0000000000E+00
                       0.0000000000E+00  0.0000000000E+00  6.9380594306E+00
                       0.0000000000E+00  0.0000000000E+00  3.9255540258E+00
                       0.0000000000E+00  0.0000000000E+00  1.0863613456E+01
                      -1.5292397120E+00 -6.3683896031E-01  7.8279811869E+00
                       1.3161385738E+00 -1.0059409589E+00  7.8279811869E+00
                       2.1310113826E-01  1.6427799192E+00  7.8279811869E+00
                      -1.2738930683E+00  9.3276959717E-01  5.5152947101E+00
                      -1.7085563285E-01 -1.5696085575E+00  5.5152947101E+00
                       1.4447487012E+00  6.3683896031E-01  5.5152947101E+00
            xcart      0.0000000000E+00  0.0000000000E+00  0.0000000000E+00
                       0.0000000000E+00  0.0000000000E+00  1.3111032218E+01
                       0.0000000000E+00  0.0000000000E+00  7.4182220287E+00
                       0.0000000000E+00  0.0000000000E+00  2.0529254246E+01
                      -2.8898442472E+00 -1.2034512257E+00  1.4792740617E+01
                       2.4871414573E+00 -1.9009529182E+00  1.4792740617E+01
                       4.0270278992E-01  3.1044041440E+00  1.4792740617E+01
                      -2.4073090218E+00  1.7626790837E+00  1.0422396544E+01
                      -3.2287035435E-01 -2.9661303095E+00  1.0422396544E+01
                       2.7301793761E+00  1.2034512257E+00  1.0422396544E+01
             xred      0.0000000000E+00  0.0000000000E+00  0.0000000000E+00
                       5.0000000000E-01  5.0000000000E-01  5.0000000000E-01
                       2.8290000000E-01  2.8290000000E-01  2.8290000000E-01
                       7.8290000000E-01  7.8290000000E-01  7.8290000000E-01
                       2.2133000000E-01  6.1190333300E-01  8.5916666700E-01
                       8.5916666700E-01  2.2133000000E-01  6.1190333300E-01
                       6.1190333300E-01  8.5916666700E-01  2.2133000000E-01
                       1.1190333300E-01  7.2133000000E-01  3.5916666700E-01
                       3.5916666700E-01  1.1190333300E-01  7.2133000000E-01
                       7.2133000000E-01  3.5916666700E-01  1.1190333300E-01
            znucl       41.00000    3.00000    8.00000

================================================================================

 chkinp: Checking input parameters for consistency.
