
.Version 7.5.4 of ABINIT 
.(MPI version, prepared for a x86_64_linux_intel13.0 computer) 

.Copyright (C) 1998-2013 ABINIT group . 
 ABINIT comes with ABSOLUTELY NO WARRANTY.
 It is free software, and you are welcome to redistribute it
 under certain conditions (GNU General Public License,
 see ~abinit/COPYING or http://www.gnu.org/copyleft/gpl.txt).

 ABINIT is a project of the Universite Catholique de Louvain,
 Corning Inc. and other collaborators, see ~abinit/doc/developers/contributors.txt .
 Please read ~abinit/doc/users/acknowledgments.html for suggested
 acknowledgments of the ABINIT effort.
 For more information, see http://www.abinit.org .

.Starting date : Sat 11 Jan 2014.
- ( at 18h47 )
  
- input  file    -> /home/users/y/g/ygillet/MySims/input/test3.in
- output file    -> /home/users/y/g/ygillet/MySims/output/test3.out
- root for input  files -> /home/users/y/g/ygillet/MySims/wholedata/test3/test3i
- root for output files -> /home/users/y/g/ygillet/MySims/wholedata/test3/test3o


 DATASET    1 : space group Fd -3 m (#227); Bravais cF (face-center cubic)
================================================================================
 Values of the parameters that define the memory need for DATASET  1.
   intxc =         0  ionmov =         0    iscf =         7 xclevel =         1
  lmnmax =         2   lnmax =         2   mband =         5  mffmem =         1
P  mgfft =        20   mkmem =         5 mpssoang=         3     mpw =       148
  mqgrid =      3001   natom =         2    nfft =      4000    nkpt =        10
  nloalg =         4  nspden =         1 nspinor =         1  nsppol =         1
    nsym =        48  n1xccc =      2501  ntypat =         1  occopt =         1
================================================================================
P This job should need less than                       1.997 Mbytes of memory.
  Rough estimation (10% accuracy) of disk space for files :
_ WF disk file :      0.228 Mbytes ; DEN or POT disk file :      0.033 Mbytes.
================================================================================


 DATASET    2 : space group Fd -3 m (#227); Bravais cF (face-center cubic)
================================================================================
 Values of the parameters that define the memory need for DATASET  2.
   intxc =         0  ionmov =         0    iscf =        -2 xclevel =         1
  lmnmax =         2   lnmax =         2   mband =         8  mffmem =         1
P  mgfft =        20   mkmem =        10 mpssoang=         3     mpw =       303
  mqgrid =      3001   natom =         2    nfft =      8000    nkpt =        40
  nloalg =         4  nspden =         1 nspinor =         1  nsppol =         1
    nsym =        48  n1xccc =      2501  ntypat =         1  occopt =         1
================================================================================
P This job should need less than                       2.336 Mbytes of memory.
  Rough estimation (10% accuracy) of disk space for files :
_ WF disk file :      1.481 Mbytes ; DEN or POT disk file :      0.063 Mbytes.
================================================================================

--------------------------------------------------------------------------------
------------- Echo of variables that govern the present computation ------------
--------------------------------------------------------------------------------
-
- outvars: echo of selected default values                                      
-   accesswff0 =  0 , fftalg0 =512 , wfoptalg0 =  0
-
- outvars: echo of global parameters not present in the input file              
-  max_nthreads =    1
-
 -outvars: echo values of preprocessed input variables --------
        accesswff1          1
        accesswff2          0
            acell      1.0217000000E+01  1.0217000000E+01  1.0217000000E+01 Bohr
              amu      2.80855000E+01
           diemac      1.20000000E+01
             ecut      8.00000000E+00 Hartree
           enunit1          0
           enunit2          1
           fftalg1        401
           fftalg2        512
      fft_opt_lob1          2
      fft_opt_lob2          1
           getden1          0
           getden2         -1
           iprcch1          6
           iprcch2          2
             iscf1          7
             iscf2         -2
           istwfk2       1    0    0    0    0    0    0    0    0    0
                         1    0    0    0    0    0    0    0    0    0
                         0    0    1    0    0    0    0    0    0    0
                         0    0    0    0    0    0    0    0    0    0
           jdtset        1    2
              kpt1    -1.25000000E-01 -2.50000000E-01  0.00000000E+00
                      -1.25000000E-01  5.00000000E-01  0.00000000E+00
                      -2.50000000E-01 -3.75000000E-01  0.00000000E+00
                      -1.25000000E-01 -3.75000000E-01  1.25000000E-01
                      -1.25000000E-01  2.50000000E-01  0.00000000E+00
                      -2.50000000E-01  3.75000000E-01  0.00000000E+00
                      -3.75000000E-01  5.00000000E-01  0.00000000E+00
                      -2.50000000E-01  5.00000000E-01  1.25000000E-01
                      -1.25000000E-01  0.00000000E+00  0.00000000E+00
                      -3.75000000E-01  0.00000000E+00  0.00000000E+00
              kpt2     5.00000000E-01  0.00000000E+00  0.00000000E+00
                       4.50000000E-01  0.00000000E+00  0.00000000E+00
                       4.00000000E-01  0.00000000E+00  0.00000000E+00
                       3.50000000E-01  0.00000000E+00  0.00000000E+00
                       3.00000000E-01  0.00000000E+00  0.00000000E+00
                       2.50000000E-01  0.00000000E+00  0.00000000E+00
                       2.00000000E-01  0.00000000E+00  0.00000000E+00
                       1.50000000E-01  0.00000000E+00  0.00000000E+00
                       1.00000000E-01  0.00000000E+00  0.00000000E+00
                       5.00000000E-02  0.00000000E+00  0.00000000E+00
                       0.00000000E+00  0.00000000E+00  0.00000000E+00
                       0.00000000E+00  4.16666667E-02  4.16666667E-02
                       0.00000000E+00  8.33333333E-02  8.33333333E-02
                       0.00000000E+00  1.25000000E-01  1.25000000E-01
                       0.00000000E+00  1.66666667E-01  1.66666667E-01
                       0.00000000E+00  2.08333333E-01  2.08333333E-01
                       0.00000000E+00  2.50000000E-01  2.50000000E-01
                       0.00000000E+00  2.91666667E-01  2.91666667E-01
                       0.00000000E+00  3.33333333E-01  3.33333333E-01
                       0.00000000E+00  3.75000000E-01  3.75000000E-01
                       0.00000000E+00  4.16666667E-01  4.16666667E-01
                       0.00000000E+00  4.58333333E-01  4.58333333E-01
                       0.00000000E+00  5.00000000E-01  5.00000000E-01
                       5.88235294E-02  5.29411765E-01  5.29411765E-01
                       1.17647059E-01  5.58823529E-01  5.58823529E-01
                       1.76470588E-01  5.88235294E-01  5.88235294E-01
                       2.35294118E-01  6.17647059E-01  6.17647059E-01
                       2.94117647E-01  6.47058824E-01  6.47058824E-01
                       3.52941176E-01  6.76470588E-01  6.76470588E-01
                       4.11764706E-01  7.05882353E-01  7.05882353E-01
                       4.70588235E-01  7.35294118E-01  7.35294118E-01
                       5.29411765E-01  7.64705882E-01  7.64705882E-01
                       5.88235294E-01  7.94117647E-01  7.94117647E-01
                       6.47058824E-01  8.23529412E-01  8.23529412E-01
                       7.05882353E-01  8.52941176E-01  8.52941176E-01
                       7.64705882E-01  8.82352941E-01  8.82352941E-01
                       8.23529412E-01  9.11764706E-01  9.11764706E-01
                       8.82352941E-01  9.41176471E-01  9.41176471E-01
                       9.41176471E-01  9.70588235E-01  9.70588235E-01
                       1.00000000E+00  1.00000000E+00  1.00000000E+00
           kptopt1          1
           kptopt2         -3
         kptrlatt        4   -4    4     -4    4    4     -4   -4    4
          kptrlen1     4.08680000E+01
          kptrlen2     3.00000000E+01
P           mkmem1          5
P           mkmem2         10
            natom           2
            nband1          5
            nband2          8
           nbdbuf1          0
           nbdbuf2          2
           ndtset           2
            ngfft          20      20      20
             nkpt1         10
             nkpt2         40
            npfft1          2
            npfft2          1
-           npkpt1          2
-           npkpt2          1
            nstep          10
             nsym          48
           ntypat           1
              occ      2.000000  2.000000  2.000000  2.000000  0.000000
           ortalg1         -2
           ortalg2          2
        paral_kgb1          1
        paral_kgb2          0
            rprim      0.0000000000E+00  5.0000000000E-01  5.0000000000E-01
                       5.0000000000E-01  0.0000000000E+00  5.0000000000E-01
                       5.0000000000E-01  5.0000000000E-01  0.0000000000E+00
           shiftk      5.00000000E-01  5.00000000E-01  5.00000000E-01
          spgroup         227
           symrel      1  0  0   0  1  0   0  0  1      -1  0  0   0 -1  0   0  0 -1
                       0 -1  1   0 -1  0   1 -1  0       0  1 -1   0  1  0  -1  1  0
                      -1  0  0  -1  0  1  -1  1  0       1  0  0   1  0 -1   1 -1  0
                       0  1 -1   1  0 -1   0  0 -1       0 -1  1  -1  0  1   0  0  1
                      -1  0  0  -1  1  0  -1  0  1       1  0  0   1 -1  0   1  0 -1
                       0 -1  1   1 -1  0   0 -1  0       0  1 -1  -1  1  0   0  1  0
                       1  0  0   0  0  1   0  1  0      -1  0  0   0  0 -1   0 -1  0
                       0  1 -1   0  0 -1   1  0 -1       0 -1  1   0  0  1  -1  0  1
                      -1  0  1  -1  1  0  -1  0  0       1  0 -1   1 -1  0   1  0  0
                       0 -1  0   1 -1  0   0 -1  1       0  1  0  -1  1  0   0  1 -1
                       1  0 -1   0  0 -1   0  1 -1      -1  0  1   0  0  1   0 -1  1
                       0  1  0   0  0  1   1  0  0       0 -1  0   0  0 -1  -1  0  0
                       1  0 -1   0  1 -1   0  0 -1      -1  0  1   0 -1  1   0  0  1
                       0 -1  0   0 -1  1   1 -1  0       0  1  0   0  1 -1  -1  1  0
                      -1  0  1  -1  0  0  -1  1  0       1  0 -1   1  0  0   1 -1  0
                       0  1  0   1  0  0   0  0  1       0 -1  0  -1  0  0   0  0 -1
                       0  0 -1   0  1 -1   1  0 -1       0  0  1   0 -1  1  -1  0  1
                       1 -1  0   0 -1  1   0 -1  0      -1  1  0   0  1 -1   0  1  0
                       0  0  1   1  0  0   0  1  0       0  0 -1  -1  0  0   0 -1  0
                      -1  1  0  -1  0  0  -1  0  1       1 -1  0   1  0  0   1  0 -1
                       0  0  1   0  1  0   1  0  0       0  0 -1   0 -1  0  -1  0  0
                       1 -1  0   0 -1  0   0 -1  1      -1  1  0   0  1  0   0  1 -1
                       0  0 -1   1  0 -1   0  1 -1       0  0  1  -1  0  1   0 -1  1
                      -1  1  0  -1  0  1  -1  0  0       1 -1  0   1  0 -1   1  0  0
            tnons      0.0000000  0.0000000  0.0000000     0.2500000  0.2500000  0.2500000
                       0.0000000  0.0000000  0.0000000     0.2500000  0.2500000  0.2500000
                       0.0000000  0.0000000  0.0000000     0.2500000  0.2500000  0.2500000
                       0.0000000  0.0000000  0.0000000     0.2500000  0.2500000  0.2500000
                       0.0000000  0.0000000  0.0000000     0.2500000  0.2500000  0.2500000
                       0.0000000  0.0000000  0.0000000     0.2500000  0.2500000  0.2500000
                       0.0000000  0.0000000  0.0000000     0.2500000  0.2500000  0.2500000
                       0.0000000  0.0000000  0.0000000     0.2500000  0.2500000  0.2500000
                       0.0000000  0.0000000  0.0000000     0.2500000  0.2500000  0.2500000
                       0.0000000  0.0000000  0.0000000     0.2500000  0.2500000  0.2500000
                       0.0000000  0.0000000  0.0000000     0.2500000  0.2500000  0.2500000
                       0.0000000  0.0000000  0.0000000     0.2500000  0.2500000  0.2500000
                       0.0000000  0.0000000  0.0000000     0.2500000  0.2500000  0.2500000
                       0.0000000  0.0000000  0.0000000     0.2500000  0.2500000  0.2500000
                       0.0000000  0.0000000  0.0000000     0.2500000  0.2500000  0.2500000
                       0.0000000  0.0000000  0.0000000     0.2500000  0.2500000  0.2500000
                       0.0000000  0.0000000  0.0000000     0.2500000  0.2500000  0.2500000
                       0.0000000  0.0000000  0.0000000     0.2500000  0.2500000  0.2500000
                       0.0000000  0.0000000  0.0000000     0.2500000  0.2500000  0.2500000
                       0.0000000  0.0000000  0.0000000     0.2500000  0.2500000  0.2500000
                       0.0000000  0.0000000  0.0000000     0.2500000  0.2500000  0.2500000
                       0.0000000  0.0000000  0.0000000     0.2500000  0.2500000  0.2500000
                       0.0000000  0.0000000  0.0000000     0.2500000  0.2500000  0.2500000
                       0.0000000  0.0000000  0.0000000     0.2500000  0.2500000  0.2500000
           toldfe1     1.00000000E-06 Hartree
           toldfe2     0.00000000E+00 Hartree
           tolwfr1     0.00000000E+00
           tolwfr2     1.00000000E-12
            typat      1  1
         wfoptalg1         14
         wfoptalg2          0
              wtk1       0.09375    0.09375    0.09375    0.18750    0.09375    0.09375
                         0.09375    0.18750    0.03125    0.03125
              wtk2       1.00000    1.00000    1.00000    1.00000    1.00000    1.00000
                         1.00000    1.00000    1.00000    1.00000    1.00000    1.00000
                         1.00000    1.00000    1.00000    1.00000    1.00000    1.00000
                         1.00000    1.00000    1.00000    1.00000    1.00000    1.00000
                         1.00000    1.00000    1.00000    1.00000    1.00000    1.00000
                         1.00000    1.00000    1.00000    1.00000    1.00000    1.00000
                         1.00000    1.00000    1.00000    1.00000
           xangst      0.0000000000E+00  0.0000000000E+00  0.0000000000E+00
                       1.3516508850E+00  1.3516508850E+00  1.3516508850E+00
            xcart      0.0000000000E+00  0.0000000000E+00  0.0000000000E+00
                       2.5542500000E+00  2.5542500000E+00  2.5542500000E+00
             xred      0.0000000000E+00  0.0000000000E+00  0.0000000000E+00
                       2.5000000000E-01  2.5000000000E-01  2.5000000000E-01
            znucl       14.00000

================================================================================

 chkinp: Checking input parameters for consistency, jdtset=   1.

 chkinp: Checking input parameters for consistency, jdtset=   2.

================================================================================
== DATASET  1 ==================================================================
-   nproc =    4

 Exchange-correlation functional for the present dataset will be:
  LDA: new Teter (4/93) with spin-polarized option - ixc=1
 Citation for XC functional:
  S. Goedecker, M. Teter, J. Huetter, PRB 54, 1703 (1996)
 
 Real(R)+Recip(G) space primitive vectors, cartesian coordinates (Bohr,Bohr^-1):
 R(1)=  0.0000000  5.1085000  5.1085000  G(1)= -0.0978761  0.0978761  0.0978761
 R(2)=  5.1085000  0.0000000  5.1085000  G(2)=  0.0978761 -0.0978761  0.0978761
 R(3)=  5.1085000  5.1085000  0.0000000  G(3)=  0.0978761  0.0978761 -0.0978761
 Unit cell volume ucvol=  2.6663072E+02 bohr^3
 Angles (23,13,12)=  6.00000000E+01  6.00000000E+01  6.00000000E+01 degrees

 getcut: wavevector=  0.0000  0.0000  0.0000  ngfft=  20  20  20
         ecut(hartree)=      8.000   => boxcut(ratio)=   2.17426

--- Pseudopotential description ------------------------------------------------
- pspini: atom type   1  psp file is /home/users/y/g/ygillet/MySims/pseudopot/14si.pspnc
- pspatm: opening atomic psp file    /home/users/y/g/ygillet/MySims/pseudopot/14si.pspnc
-  Troullier-Martins psp for element  Si        Thu Oct 27 17:31:21 EDT 1994
- 14.00000   4.00000    940714                znucl, zion, pspdat
    1    1    2    2      2001   0.00000      pspcod,pspxc,lmax,lloc,mmax,r2well
    0   5.907  14.692    1   2.0872718        l,e99.0,e99.9,nproj,rcpsp
   0.00000000   0.00000000   0.00000000   0.00000000     rms, ekb1, ekb2, epsatm
    1   2.617   4.181    1   2.0872718        l,e99.0,e99.9,nproj,rcpsp
   0.00000000   0.00000000   0.00000000   0.00000000     rms, ekb1, ekb2, epsatm
    2   0.000   0.000    0   2.0872718        l,e99.0,e99.9,nproj,rcpsp
   0.00000000   0.00000000   0.00000000   0.00000000     rms, ekb1, ekb2, epsatm
    1.80626423934776    0.22824404341771    1.17378968127746   rchrg,fchrg,qchrg
 pspatm: epsatm=    1.43386982
         --- l  ekb(1:nproj) -->
             0    3.287949
             1    1.849886
 pspatm: atomic psp has been read  and splines computed

   2.29419171E+01                                ecore*ucvol(ha*bohr**3)
--------------------------------------------------------------------------------

P newkpt: treating      5 bands with npw=     145 for ikpt=   1 by node    0
P newkpt: treating      5 bands with npw=     143 for ikpt=   2 by node    0
P newkpt: treating      5 bands with npw=     146 for ikpt=   3 by node    0
P newkpt: treating      5 bands with npw=     147 for ikpt=   4 by node    0
P newkpt: treating      5 bands with npw=     148 for ikpt=   5 by node    0
P newkpt: treating      5 bands with npw=     145 for ikpt=   6 by node    1
P newkpt: treating      5 bands with npw=     147 for ikpt=   7 by node    1
P newkpt: treating      5 bands with npw=     144 for ikpt=   8 by node    1
P newkpt: treating      5 bands with npw=     141 for ikpt=   9 by node    1
P newkpt: treating      5 bands with npw=     143 for ikpt=  10 by node    1
 
_setup2: Arith. and geom. avg. npw (full set) are     145.375     145.364

================================================================================

     iter   Etot(hartree)      deltaE(h)  residm     vres2
 ETOT  1  -8.8676875491154    -8.868E+00 2.560E-04 5.799E+00
 ETOT  2  -8.8724846473800    -4.797E-03 4.825E-06 1.492E-01
 ETOT  3  -8.8725560482823    -7.140E-05 1.165E-06 3.104E-03
 ETOT  4  -8.8725570673161    -1.019E-06 2.054E-07 1.648E-05
 ETOT  5  -8.8725570746230    -7.307E-09 3.658E-08 3.110E-08
 ETOT  6  -8.8725570746532    -3.021E-11 7.383E-09 7.125E-10

 At SCF step    6, etot is converged : 
  for the second time, diff in etot=  3.021E-11 < toldfe=  1.000E-06

 Cartesian components of stress tensor (hartree/bohr^3)
  sigma(1 1)=  3.02307481E-05  sigma(3 2)=  0.00000000E+00
  sigma(2 2)=  3.02307481E-05  sigma(3 1)=  0.00000000E+00
  sigma(3 3)=  3.02307481E-05  sigma(2 1)=  0.00000000E+00
 
================================================================================

 ----iterations are completed or convergence reached----

 Mean square residual over all n,k,spin=   2.8044E-10; max=  7.3826E-09
  -0.1250 -0.2500  0.0000    1  7.56263E-13 kpt; spin; max resid(k); each band:
  3.45E-17 7.77E-15 3.83E-17 6.46E-15 7.56E-13
  -0.1250  0.5000  0.0000    1  7.16948E-12 kpt; spin; max resid(k); each band:
  1.30E-15 2.35E-15 1.06E-15 1.27E-16 7.17E-12
  -0.2500 -0.3750  0.0000    1  2.83506E-12 kpt; spin; max resid(k); each band:
  1.58E-16 5.52E-15 3.79E-15 1.11E-17 2.84E-12
  -0.1250 -0.3750  0.1250    1  6.58158E-09 kpt; spin; max resid(k); each band:
  5.42E-16 1.39E-14 5.29E-15 6.01E-16 6.58E-09
  -0.1250  0.2500  0.0000    1  1.22686E-11 kpt; spin; max resid(k); each band:
  1.48E-16 6.64E-15 2.67E-15 3.81E-17 1.23E-11
  -0.2500  0.3750  0.0000    1  1.39333E-14 kpt; spin; max resid(k); each band:
  6.40E-16 1.39E-14 3.28E-15 2.23E-17 3.15E-15
  -0.3750  0.5000  0.0000    1  3.44802E-11 kpt; spin; max resid(k); each band:
  5.24E-16 1.92E-16 8.08E-16 6.87E-18 3.45E-11
  -0.2500  0.5000  0.1250    1  2.57786E-13 kpt; spin; max resid(k); each band:
  8.94E-16 5.02E-15 1.42E-15 8.13E-16 2.58E-13
  -0.1250  0.0000  0.0000    1  7.38261E-09 kpt; spin; max resid(k); each band:
  5.43E-18 3.29E-16 2.97E-16 2.91E-16 7.38E-09
  -0.3750  0.0000  0.0000    1  7.08864E-14 kpt; spin; max resid(k); each band:
  9.47E-16 3.62E-16 1.95E-17 1.96E-17 7.09E-14
 reduced coordinates (array xred) for    2 atoms
       0.000000000000      0.000000000000      0.000000000000
       0.250000000000      0.250000000000      0.250000000000
 rms dE/dt=  0.0000E+00; max dE/dt=  0.0000E+00; dE/dt below (all hartree)
    1       0.000000000000      0.000000000000      0.000000000000
    2       0.000000000000      0.000000000000      0.000000000000
 
 cartesian coordinates (angstrom) at end:
    1      0.00000000000000     0.00000000000000     0.00000000000000
    2      1.35165088504101     1.35165088504101     1.35165088504101

 cartesian forces (hartree/bohr) at end:
    1      0.00000000000000     0.00000000000000     0.00000000000000
    2      0.00000000000000     0.00000000000000     0.00000000000000
 frms,max,avg= 0.0000000E+00 0.0000000E+00   0.000E+00  0.000E+00  0.000E+00 h/b

 cartesian forces (eV/Angstrom) at end:
    1      0.00000000000000     0.00000000000000     0.00000000000000
    2      0.00000000000000     0.00000000000000     0.00000000000000
 frms,max,avg= 0.0000000E+00 0.0000000E+00   0.000E+00  0.000E+00  0.000E+00 e/A
 length scales= 10.217000000000 10.217000000000 10.217000000000 bohr
              =  5.406603540164  5.406603540164  5.406603540164 angstroms
 prteigrs : about to open file /home/users/y/g/ygillet/MySims/wholedata/test3/test3o_DS1_EIG
 Fermi (or HOMO) energy (hartree) =   0.20639   Average Vxc (hartree)=  -0.35452
 Eigenvalues (hartree) for nkpt=  10  k points:
 kpt#   1, nband=  5, wtk=  0.09375, kpt= -0.1250 -0.2500  0.0000 (reduced coord)
  -0.19910   0.09746   0.16768   0.17054   0.29392
 kpt#   2, nband=  5, wtk=  0.09375, kpt= -0.1250  0.5000  0.0000 (reduced coord)
  -0.13615  -0.03410   0.13177   0.15876   0.29555
 kpt#   3, nband=  5, wtk=  0.09375, kpt= -0.2500 -0.3750  0.0000 (reduced coord)
  -0.15990   0.03449   0.11680   0.13441   0.26364
 kpt#   4, nband=  5, wtk=  0.18750, kpt= -0.1250 -0.3750  0.1250 (reduced coord)
  -0.14389   0.00051   0.09248   0.14469   0.32094
 kpt#   5, nband=  5, wtk=  0.09375, kpt= -0.1250  0.2500  0.0000 (reduced coord)
  -0.18008   0.04529   0.13033   0.18831   0.31515
 kpt#   6, nband=  5, wtk=  0.09375, kpt= -0.2500  0.3750  0.0000 (reduced coord)
  -0.11740  -0.02927   0.06716   0.14656   0.28192
 kpt#   7, nband=  5, wtk=  0.09375, kpt= -0.3750  0.5000  0.0000 (reduced coord)
  -0.10393  -0.03546   0.08802   0.11675   0.24618
 kpt#   8, nband=  5, wtk=  0.18750, kpt= -0.2500  0.5000  0.1250 (reduced coord)
  -0.09712  -0.03937   0.06437   0.10586   0.30237
 kpt#   9, nband=  5, wtk=  0.03125, kpt= -0.1250  0.0000  0.0000 (reduced coord)
  -0.21917   0.15754   0.20639   0.20639   0.30711
 kpt#  10, nband=  5, wtk=  0.03125, kpt= -0.3750  0.0000  0.0000 (reduced coord)
  -0.16342  -0.00429   0.17658   0.17658   0.27595
 Total charge density [el/Bohr^3]
,     Maximum=    8.5805E-02  at reduced coord.    0.1500    0.1500    0.0500
,Next maximum=    8.5805E-02  at reduced coord.    0.1000    0.1000    0.2000
,     Minimum=    3.5223E-03  at reduced coord.    0.5000    0.5000    0.0000
,Next minimum=    3.5223E-03  at reduced coord.    0.7500    0.7500    0.2500
,  Integrated=    8.0000E+00

--------------------------------------------------------------------------------
 Components of total free energy (in Hartree) :

    Kinetic energy  =  3.02548366455228E+00
    Hartree energy  =  5.38002588460341E-01
    XC energy       = -3.53865889349008E+00
    Ewald energy    = -8.43581958561899E+00
    PspCore energy  =  8.60437873147362E-02
    Loc. psp. energy= -2.43059981103558E+00
    NL   psp  energy=  1.88299117516405E+00
    >>>>>>>>> Etotal= -8.87255707465323E+00

 Other information on the energy :
    Total energy(eV)= -2.41434556378148E+02 ; Band energy (Ha)=   2.3116273507E-01
--------------------------------------------------------------------------------

 Cartesian components of stress tensor (hartree/bohr^3)
  sigma(1 1)=  3.02307481E-05  sigma(3 2)=  0.00000000E+00
  sigma(2 2)=  3.02307481E-05  sigma(3 1)=  0.00000000E+00
  sigma(3 3)=  3.02307481E-05  sigma(2 1)=  0.00000000E+00

-Cartesian components of stress tensor (GPa)         [Pressure= -8.8942E-01 GPa]
- sigma(1 1)=  8.89419166E-01  sigma(3 2)=  0.00000000E+00
- sigma(2 2)=  8.89419166E-01  sigma(3 1)=  0.00000000E+00
- sigma(3 3)=  8.89419166E-01  sigma(2 1)=  0.00000000E+00

================================================================================
== DATASET  2 ==================================================================
-   nproc =    4

 mkfilename : getden/=0, take file _DEN from output of DATASET   1.

 Exchange-correlation functional for the present dataset will be:
  LDA: new Teter (4/93) with spin-polarized option - ixc=1
 Citation for XC functional:
  S. Goedecker, M. Teter, J. Huetter, PRB 54, 1703 (1996)
 
 Real(R)+Recip(G) space primitive vectors, cartesian coordinates (Bohr,Bohr^-1):
 R(1)=  0.0000000  5.1085000  5.1085000  G(1)= -0.0978761  0.0978761  0.0978761
 R(2)=  5.1085000  0.0000000  5.1085000  G(2)=  0.0978761 -0.0978761  0.0978761
 R(3)=  5.1085000  5.1085000  0.0000000  G(3)=  0.0978761  0.0978761 -0.0978761
 Unit cell volume ucvol=  2.6663072E+02 bohr^3
 Angles (23,13,12)=  6.00000000E+01  6.00000000E+01  6.00000000E+01 degrees

 getcut: wavevector=  0.0000  0.0000  0.0000  ngfft=  20  20  20
         ecut(hartree)=      8.000   => boxcut(ratio)=   2.17426
--------------------------------------------------------------------------------

P newkpt: treating      8 bands with npw=     272 for ikpt=   1 by node    0
P newkpt: treating      8 bands with npw=     284 for ikpt=   2 by node    0
P newkpt: treating      8 bands with npw=     281 for ikpt=   3 by node    0
P newkpt: treating      8 bands with npw=     287 for ikpt=   4 by node    0
P newkpt: treating      8 bands with npw=     290 for ikpt=   5 by node    0
P newkpt: treating      8 bands with npw=     296 for ikpt=   6 by node    0
P newkpt: treating      8 bands with npw=     295 for ikpt=   7 by node    0
P newkpt: treating      8 bands with npw=     295 for ikpt=   8 by node    0
P newkpt: treating      8 bands with npw=     295 for ikpt=   9 by node    0
P newkpt: treating      8 bands with npw=     286 for ikpt=  10 by node    0
P newkpt: treating      8 bands with npw=     283 for ikpt=  11 by node    1
P newkpt: treating      8 bands with npw=     287 for ikpt=  12 by node    1
P newkpt: treating      8 bands with npw=     299 for ikpt=  13 by node    1
P newkpt: treating      8 bands with npw=     295 for ikpt=  14 by node    1
P newkpt: treating      8 bands with npw=     295 for ikpt=  15 by node    1
P newkpt: treating      8 bands with npw=     295 for ikpt=  16 by node    1
P newkpt: treating      8 bands with npw=     303 for ikpt=  17 by node    1
P newkpt: treating      8 bands with npw=     298 for ikpt=  18 by node    1
P newkpt: treating      8 bands with npw=     302 for ikpt=  19 by node    1
P newkpt: treating      8 bands with npw=     286 for ikpt=  20 by node    1
P newkpt: treating      8 bands with npw=     290 for ikpt=  21 by node    2
P newkpt: treating      8 bands with npw=     294 for ikpt=  22 by node    2
P newkpt: treating      8 bands with npw=     302 for ikpt=  23 by node    2
P newkpt: treating      8 bands with npw=     294 for ikpt=  24 by node    2
P newkpt: treating      8 bands with npw=     288 for ikpt=  25 by node    2
P newkpt: treating      8 bands with npw=     280 for ikpt=  26 by node    2
P newkpt: treating      8 bands with npw=     288 for ikpt=  27 by node    2
P newkpt: treating      8 bands with npw=     284 for ikpt=  28 by node    2
P newkpt: treating      8 bands with npw=     284 for ikpt=  29 by node    2
P newkpt: treating      8 bands with npw=     285 for ikpt=  30 by node    2
P newkpt: treating      8 bands with npw=     285 for ikpt=  31 by node    3
P newkpt: treating      8 bands with npw=     289 for ikpt=  32 by node    3
P newkpt: treating      8 bands with npw=     295 for ikpt=  33 by node    3
P newkpt: treating      8 bands with npw=     295 for ikpt=  34 by node    3
P newkpt: treating      8 bands with npw=     295 for ikpt=  35 by node    3
P newkpt: treating      8 bands with npw=     297 for ikpt=  36 by node    3
P newkpt: treating      8 bands with npw=     291 for ikpt=  37 by node    3
P newkpt: treating      8 bands with npw=     293 for ikpt=  38 by node    3
P newkpt: treating      8 bands with npw=     289 for ikpt=  39 by node    3
P newkpt: treating      8 bands with npw=     283 for ikpt=  40 by node    3
 

================================================================================
 prteigrs : about to open file /home/users/y/g/ygillet/MySims/wholedata/test3/test3o_DS2_EIG
 Non-SCF case, kpt    1 (  0.50000  0.00000  0.00000), residuals and eigenvalues=
  7.40E-13  9.07E-13  9.16E-13  5.82E-13  4.41E-13  5.88E-13  9.84E-13  1.17E-12
 -1.3927E-01 -4.2641E-02  1.7250E-01  1.7250E-01  2.7135E-01  3.3941E-01
  3.3941E-01  4.9441E-01
  prteigrs : nnsclo,ikpt=   10    1 max resid (incl. the buffer)=  1.16635E-12
 Non-SCF case, kpt    2 (  0.45000  0.00000  0.00000), residuals and eigenvalues=
  1.96E-13  2.10E-13  2.30E-13  3.57E-13  5.74E-13  1.89E-13  5.77E-13  3.85E-10
 -1.4440E-01 -3.5258E-02  1.7310E-01  1.7310E-01  2.7205E-01  3.4003E-01
  3.4003E-01  4.9559E-01
  prteigrs : nnsclo,ikpt=   10    2 max resid (incl. the buffer)=  3.85385E-10
 Non-SCF case, kpt    3 (  0.40000  0.00000  0.00000), residuals and eigenvalues=
  1.81E-13  4.38E-13  2.21E-13  2.74E-13  7.92E-13  1.54E-13  8.46E-13  9.51E-08
 -1.5640E-01 -1.6382E-02  1.7509E-01  1.7509E-01  2.7431E-01  3.4210E-01
  3.4210E-01  4.9883E-01
  prteigrs : nnsclo,ikpt=   10    3 max resid (incl. the buffer)=  9.51199E-08
 Non-SCF case, kpt    4 (  0.35000  0.00000  0.00000), residuals and eigenvalues=
  5.85E-13  1.23E-13  1.39E-13  2.35E-13  2.11E-13  4.36E-13  2.21E-13  6.19E-06
 -1.7057E-01  9.0904E-03  1.7840E-01  1.7840E-01  2.7799E-01  3.4472E-01
  3.4472E-01  5.0134E-01
  prteigrs : nnsclo,ikpt=   10    4 max resid (incl. the buffer)=  6.18549E-06
 Non-SCF case, kpt    5 (  0.30000  0.00000  0.00000), residuals and eigenvalues=
  2.07E-13  3.96E-13  1.95E-13  1.31E-13  9.81E-13  6.27E-13  9.82E-14  8.09E-05
 -1.8444E-01  3.8652E-02  1.8299E-01  1.8299E-01  2.8296E-01  3.4649E-01
  3.4649E-01  4.9337E-01
  prteigrs : nnsclo,ikpt=   10    5 max resid (incl. the buffer)=  8.08552E-05
 Non-SCF case, kpt    6 (  0.25000  0.00000  0.00000), residuals and eigenvalues=
  8.38E-13  1.65E-13  5.69E-13  5.39E-13  5.62E-13  1.30E-13  3.37E-13  5.35E-06
 -1.9692E-01  7.0959E-02  1.8875E-01  1.8875E-01  2.8922E-01  3.4546E-01
  3.4546E-01  4.6689E-01
  prteigrs : nnsclo,ikpt=   10    6 max resid (incl. the buffer)=  5.35482E-06
 Non-SCF case, kpt    7 (  0.20000  0.00000  0.00000), residuals and eigenvalues=
  4.57E-13  2.88E-13  7.95E-13  1.72E-13  1.08E-13  2.46E-13  1.12E-11  2.35E-08
 -2.0746E-01  1.0513E-01  1.9550E-01  1.9550E-01  2.9638E-01  3.4016E-01
  3.4016E-01  4.3560E-01
  prteigrs : nnsclo,ikpt=   10    7 max resid (incl. the buffer)=  2.34739E-08
 Non-SCF case, kpt    8 (  0.15000  0.00000  0.00000), residuals and eigenvalues=
  5.07E-13  1.29E-13  9.27E-13  1.43E-13  5.00E-13  5.06E-13  2.19E-12  2.92E-10
 -2.1582E-01  1.4017E-01  2.0280E-01  2.0280E-01  3.0373E-01  3.3121E-01
  3.3121E-01  4.0307E-01
  prteigrs : nnsclo,ikpt=   10    8 max resid (incl. the buffer)=  2.92112E-10
 Non-SCF case, kpt    9 (  0.10000  0.00000  0.00000), residuals and eigenvalues=
  2.33E-13  5.77E-13  1.83E-13  3.49E-13  1.02E-13  5.07E-13  1.99E-13  2.92E-12
 -2.2190E-01  1.7442E-01  2.0981E-01  2.0981E-01  3.0996E-01  3.2130E-01
  3.2130E-01  3.7145E-01
  prteigrs : nnsclo,ikpt=   10    9 max resid (incl. the buffer)=  2.91770E-12
 Non-SCF case, kpt   10 (  0.05000  0.00000  0.00000), residuals and eigenvalues=
  2.65E-13  1.53E-13  4.77E-13  4.97E-13  5.29E-13  3.72E-13  1.80E-13  1.12E-13
 -2.2556E-01  2.0388E-01  2.1527E-01  2.1527E-01  3.1238E-01  3.1341E-01
  3.1341E-01  3.4610E-01
 Non-SCF case, kpt   11 (  0.00000  0.00000  0.00000), residuals and eigenvalues=
  2.17E-13  1.57E-13  1.05E-13  6.10E-13  7.93E-13  4.85E-13  8.21E-13  7.02E-13
 -2.2678E-01  2.1738E-01  2.1738E-01  2.1738E-01  3.1036E-01  3.1036E-01
  3.1036E-01  3.3704E-01
 Non-SCF case, kpt   12 (  0.00000  0.04167  0.04167), residuals and eigenvalues=
  6.47E-13  9.52E-13  2.86E-13  4.88E-13  2.47E-13  3.45E-13  3.35E-13  2.21E-13
 -2.2565E-01  2.0994E-01  2.1257E-01  2.1257E-01  3.0746E-01  3.1649E-01
  3.1649E-01  3.4419E-01
 Non-SCF case, kpt   13 (  0.00000  0.08333  0.08333), residuals and eigenvalues=
  5.17E-13  5.60E-13  1.54E-13  2.76E-13  1.85E-13  2.90E-13  9.20E-13  7.75E-12
 -2.2226E-01  1.9154E-01  2.0100E-01  2.0100E-01  2.9958E-01  3.3204E-01
  3.3204E-01  3.6064E-01
  prteigrs : nnsclo,ikpt=   10   13 max resid (incl. the buffer)=  7.75199E-12
 Non-SCF case, kpt   14 (  0.00000  0.12500  0.12500), residuals and eigenvalues=
  5.03E-13  1.71E-13  2.61E-13  3.80E-13  9.10E-13  8.40E-13  6.47E-13  4.63E-12
 -2.1659E-01  1.6790E-01  1.8684E-01  1.8684E-01  2.8891E-01  3.5302E-01
  3.5302E-01  3.7532E-01
  prteigrs : nnsclo,ikpt=   10   14 max resid (incl. the buffer)=  4.62657E-12
 Non-SCF case, kpt   15 (  0.00000  0.16667  0.16667), residuals and eigenvalues=
  4.24E-13  1.85E-13  2.00E-13  9.85E-13  4.70E-13  7.39E-13  7.82E-13  4.11E-11
 -2.0872E-01  1.4193E-01  1.7235E-01  1.7235E-01  2.7720E-01  3.7264E-01
  3.7689E-01  3.7689E-01
  prteigrs : nnsclo,ikpt=   10   15 max resid (incl. the buffer)=  4.10621E-11
 Non-SCF case, kpt   16 (  0.00000  0.20833  0.20833), residuals and eigenvalues=
  1.94E-13  1.20E-13  4.05E-13  1.58E-13  9.12E-13  2.39E-13  4.82E-12  2.19E-10
 -1.9865E-01  1.1490E-01  1.5864E-01  1.5864E-01  2.6576E-01  3.5324E-01
  4.0248E-01  4.0248E-01
  prteigrs : nnsclo,ikpt=   10   16 max resid (incl. the buffer)=  2.19324E-10
 Non-SCF case, kpt   17 (  0.00000  0.25000  0.25000), residuals and eigenvalues=
  1.26E-13  9.14E-14  2.39E-13  3.29E-13  1.88E-13  4.38E-13  1.12E-09  2.50E-08
 -1.8643E-01  8.7332E-02  1.4625E-01  1.4625E-01  2.5532E-01  3.2949E-01
  4.2904E-01  4.2904E-01
  prteigrs : nnsclo,ikpt=   10   17 max resid (incl. the buffer)=  2.50355E-08
 Non-SCF case, kpt   18 (  0.00000  0.29167  0.29167), residuals and eigenvalues=
  5.98E-13  8.51E-13  2.13E-13  9.47E-13  7.99E-13  9.15E-13  9.72E-10  3.25E-09
 -1.7209E-01  5.9649E-02  1.3555E-01  1.3555E-01  2.4671E-01  3.0699E-01
  4.5652E-01  4.5652E-01
  prteigrs : nnsclo,ikpt=   10   18 max resid (incl. the buffer)=  3.24741E-09
 Non-SCF case, kpt   19 (  0.00000  0.33333  0.33333), residuals and eigenvalues=
  2.34E-13  9.94E-13  3.57E-13  3.79E-13  8.30E-13  2.29E-13  4.43E-10  1.52E-09
 -1.5574E-01  3.2054E-02  1.2659E-01  1.2659E-01  2.4004E-01  2.8687E-01
  4.8456E-01  4.8456E-01
  prteigrs : nnsclo,ikpt=   10   19 max resid (incl. the buffer)=  1.51748E-09
 Non-SCF case, kpt   20 (  0.00000  0.37500  0.37500), residuals and eigenvalues=
  3.96E-13  2.94E-13  6.12E-13  5.57E-13  7.49E-13  1.86E-13  3.96E-10  6.97E-09
 -1.3745E-01  4.8377E-03  1.1960E-01  1.1960E-01  2.3586E-01  2.7021E-01
  5.1361E-01  5.1361E-01
  prteigrs : nnsclo,ikpt=   10   20 max resid (incl. the buffer)=  6.97138E-09
 Non-SCF case, kpt   21 (  0.00000  0.41667  0.41667), residuals and eigenvalues=
  1.50E-13  1.11E-13  1.70E-13  1.45E-13  1.68E-13  2.06E-13  9.49E-10  9.07E-09
 -1.1735E-01 -2.1804E-02  1.1451E-01  1.1451E-01  2.3417E-01  2.5655E-01
  5.4233E-01  5.4233E-01
  prteigrs : nnsclo,ikpt=   10   21 max resid (incl. the buffer)=  9.07205E-09
 Non-SCF case, kpt   22 (  0.00000  0.45833  0.45833), residuals and eigenvalues=
  1.80E-13  2.37E-13  3.85E-13  2.17E-13  7.50E-13  5.52E-13  1.35E-08  5.92E-08
 -9.5564E-02 -4.7581E-02  1.1143E-01  1.1143E-01  2.3523E-01  2.4627E-01
  5.6972E-01  5.6972E-01
  prteigrs : nnsclo,ikpt=   10   22 max resid (incl. the buffer)=  5.91826E-08
 Non-SCF case, kpt   23 (  0.00000  0.50000  0.50000), residuals and eigenvalues=
  5.75E-13  1.01E-13  5.77E-13  9.56E-13  4.02E-13  6.75E-13  1.55E-07  1.50E-04
 -7.2248E-02 -7.2248E-02  1.1038E-01  1.1038E-01  2.3921E-01  2.3921E-01
  5.8614E-01  5.8620E-01
  prteigrs : nnsclo,ikpt=   10   23 max resid (incl. the buffer)=  1.49552E-04
 Non-SCF case, kpt   24 (  0.05882  0.52941  0.52941), residuals and eigenvalues=
  1.61E-13  1.39E-13  2.00E-13  1.26E-13  3.15E-13  2.22E-13  1.64E-06  1.30E-07
 -7.2687E-02 -7.1027E-02  1.0300E-01  1.1131E-01  2.4027E-01  2.5031E-01
  5.7582E-01  5.7975E-01
  prteigrs : nnsclo,ikpt=   10   24 max resid (incl. the buffer)=  1.64408E-06
 Non-SCF case, kpt   25 (  0.11765  0.55882  0.55882), residuals and eigenvalues=
  9.11E-13  5.57E-13  9.74E-14  1.01E-13  9.13E-13  8.22E-13  1.27E-06  9.72E-06
 -7.4331E-02 -6.7360E-02  8.6721E-02  1.1403E-01  2.4342E-01  2.7807E-01
  5.5268E-01  5.6369E-01
  prteigrs : nnsclo,ikpt=   10   25 max resid (incl. the buffer)=  9.71739E-06
 Non-SCF case, kpt   26 (  0.17647  0.58824  0.58824), residuals and eigenvalues=
  1.04E-13  3.28E-13  6.65E-13  6.89E-13  1.42E-13  2.07E-13  2.71E-05  2.54E-04
 -7.8013E-02 -6.1304E-02  6.9895E-02  1.1852E-01  2.4869E-01  3.1473E-01
  5.2607E-01  5.4601E-01
  prteigrs : nnsclo,ikpt=   10   26 max resid (incl. the buffer)=  2.53526E-04
 Non-SCF case, kpt   27 (  0.23529  0.61765  0.61765), residuals and eigenvalues=
  6.23E-13  3.51E-13  6.83E-14  2.21E-13  2.71E-13  1.25E-13  1.92E-06  1.75E-05
 -8.4928E-02 -5.2877E-02  5.7330E-02  1.2460E-01  2.5574E-01  3.5634E-01
  4.9863E-01  5.2026E-01
  prteigrs : nnsclo,ikpt=   10   27 max resid (incl. the buffer)=  1.74610E-05
 Non-SCF case, kpt   28 (  0.29412  0.64706  0.64706), residuals and eigenvalues=
  5.25E-13  1.25E-13  2.08E-13  1.41E-13  8.17E-13  8.01E-13  1.83E-07  1.50E-06
 -9.5618E-02 -4.2047E-02  5.1313E-02  1.3225E-01  2.6464E-01  4.0106E-01
  4.7221E-01  4.9174E-01
  prteigrs : nnsclo,ikpt=   10   28 max resid (incl. the buffer)=  1.49726E-06
 Non-SCF case, kpt   29 (  0.35294  0.67647  0.67647), residuals and eigenvalues=
  5.73E-13  1.94E-13  8.63E-13  1.16E-13  8.48E-14  7.93E-13  1.08E-11  2.01E-07
 -1.0961E-01 -2.8854E-02  5.1962E-02  1.4124E-01  2.7508E-01  4.4184E-01
  4.4723E-01  4.7236E-01
  prteigrs : nnsclo,ikpt=   10   29 max resid (incl. the buffer)=  2.00745E-07
 Non-SCF case, kpt   30 (  0.41176  0.70588  0.70588), residuals and eigenvalues=
  5.14E-13  6.42E-13  1.88E-13  2.28E-13  5.50E-13  7.39E-13  5.02E-10  2.41E-07
 -1.2558E-01 -1.3332E-02  5.8327E-02  1.5129E-01  2.8670E-01  4.2402E-01
  4.3567E-01  4.6215E-01
  prteigrs : nnsclo,ikpt=   10   30 max resid (incl. the buffer)=  2.40998E-07
 Non-SCF case, kpt   31 (  0.47059  0.73529  0.73529), residuals and eigenvalues=
  9.57E-13  2.06E-13  9.37E-13  7.02E-13  3.23E-13  7.69E-13  2.02E-11  1.81E-07
 -1.4219E-01  4.4779E-03  6.9177E-02  1.6204E-01  2.9884E-01  4.0275E-01
  4.1513E-01  4.4646E-01
  prteigrs : nnsclo,ikpt=   10   31 max resid (incl. the buffer)=  1.81356E-07
 Non-SCF case, kpt   32 (  0.52941  0.76471  0.76471), residuals and eigenvalues=
  2.77E-13  4.25E-13  1.87E-13  1.29E-13  1.72E-13  7.10E-13  7.60E-12  1.01E-09
 -1.5840E-01  2.4538E-02  8.3483E-02  1.7297E-01  3.1046E-01  3.8353E-01
  3.9540E-01  4.3413E-01
  prteigrs : nnsclo,ikpt=   10   32 max resid (incl. the buffer)=  1.01029E-09
 Non-SCF case, kpt   33 (  0.58824  0.79412  0.79412), residuals and eigenvalues=
  5.80E-13  9.08E-14  1.10E-13  2.11E-13  6.52E-13  4.78E-13  5.04E-13  3.97E-08
 -1.7355E-01  4.6662E-02  1.0046E-01  1.8357E-01  3.2010E-01  3.6648E-01
  3.7774E-01  4.2615E-01
  prteigrs : nnsclo,ikpt=   10   33 max resid (incl. the buffer)=  3.97452E-08
 Non-SCF case, kpt   34 (  0.64706  0.82353  0.82353), residuals and eigenvalues=
  7.26E-13  2.97E-13  9.63E-13  4.50E-13  3.11E-13  7.35E-13  1.75E-12  8.84E-07
 -1.8718E-01  7.0882E-02  1.1951E-01  1.9324E-01  3.2614E-01  3.5164E-01
  3.6207E-01  4.2292E-01
  prteigrs : nnsclo,ikpt=   10   34 max resid (incl. the buffer)=  8.83852E-07
 Non-SCF case, kpt   35 (  0.70588  0.85294  0.85294), residuals and eigenvalues=
  8.61E-13  5.14E-13  1.89E-13  4.57E-13  7.47E-13  4.38E-13  8.07E-13  4.53E-07
 -1.9901E-01  9.6961E-02  1.3994E-01  2.0143E-01  3.2805E-01  3.3903E-01
  3.4837E-01  4.2202E-01
  prteigrs : nnsclo,ikpt=   10   35 max resid (incl. the buffer)=  4.53498E-07
 Non-SCF case, kpt   36 (  0.76471  0.88235  0.88235), residuals and eigenvalues=
  1.76E-13  1.91E-13  9.88E-13  4.67E-13  2.18E-13  7.91E-13  1.46E-12  8.54E-08
 -2.0888E-01  1.2462E-01  1.6092E-01  2.0781E-01  3.2680E-01  3.2869E-01
  3.3651E-01  4.1567E-01
  prteigrs : nnsclo,ikpt=   10   36 max resid (incl. the buffer)=  8.53797E-08
 Non-SCF case, kpt   37 (  0.82353  0.91176  0.91176), residuals and eigenvalues=
  7.82E-13  1.87E-13  4.44E-13  1.59E-13  6.33E-13  3.07E-13  3.88E-13  1.75E-10
 -2.1666E-01  1.5328E-01  1.8133E-01  2.1236E-01  3.2071E-01  3.2405E-01
  3.2658E-01  3.9595E-01
  prteigrs : nnsclo,ikpt=   10   37 max resid (incl. the buffer)=  1.74837E-10
 Non-SCF case, kpt   38 (  0.88235  0.94118  0.94118), residuals and eigenvalues=
  7.58E-13  3.84E-13  5.30E-13  2.10E-13  1.58E-13  9.93E-13  8.77E-13  8.30E-12
 -2.2228E-01  1.8166E-01  1.9934E-01  2.1528E-01  3.1495E-01  3.1834E-01
  3.2029E-01  3.6828E-01
  prteigrs : nnsclo,ikpt=   10   38 max resid (incl. the buffer)=  8.29627E-12
 Non-SCF case, kpt   39 (  0.94118  0.97059  0.97059), residuals and eigenvalues=
  6.88E-13  5.02E-13  5.56E-14  1.23E-13  3.89E-13  5.13E-13  1.41E-13  6.31E-12
 -2.2566E-01  2.0620E-01  2.1243E-01  2.1687E-01  3.1150E-01  3.1254E-01
  3.1496E-01  3.4516E-01
  prteigrs : nnsclo,ikpt=   10   39 max resid (incl. the buffer)=  6.30856E-12
 Non-SCF case, kpt   40 (  1.00000  1.00000  1.00000), residuals and eigenvalues=
  5.82E-13  3.49E-13  4.55E-13  3.17E-13  3.45E-13  2.86E-13  6.34E-13  2.68E-13
 -2.2678E-01  2.1738E-01  2.1738E-01  2.1738E-01  3.1036E-01  3.1036E-01
  3.1036E-01  3.3704E-01
================================================================================

 ----iterations are completed or convergence reached----

 Mean square residual over all n,k,spin=   1.7466E-06; max=  2.5353E-04
   0.5000  0.0000  0.0000    1  1.16635E-12 kpt; spin; max resid(k); each band:
  7.40E-13 9.07E-13 9.16E-13 5.82E-13 4.41E-13 5.88E-13 9.84E-13 1.17E-12
   0.4500  0.0000  0.0000    1  3.85385E-10 kpt; spin; max resid(k); each band:
  1.96E-13 2.10E-13 2.30E-13 3.57E-13 5.74E-13 1.89E-13 5.77E-13 3.85E-10
   0.4000  0.0000  0.0000    1  9.51199E-08 kpt; spin; max resid(k); each band:
  1.81E-13 4.38E-13 2.21E-13 2.74E-13 7.92E-13 1.54E-13 8.46E-13 9.51E-08
   0.3500  0.0000  0.0000    1  6.18549E-06 kpt; spin; max resid(k); each band:
  5.85E-13 1.23E-13 1.39E-13 2.35E-13 2.11E-13 4.36E-13 2.21E-13 6.19E-06
   0.3000  0.0000  0.0000    1  8.08552E-05 kpt; spin; max resid(k); each band:
  2.07E-13 3.96E-13 1.95E-13 1.31E-13 9.81E-13 6.27E-13 9.82E-14 8.09E-05
   0.2500  0.0000  0.0000    1  5.35482E-06 kpt; spin; max resid(k); each band:
  8.38E-13 1.65E-13 5.69E-13 5.39E-13 5.62E-13 1.30E-13 3.37E-13 5.35E-06
   0.2000  0.0000  0.0000    1  2.34739E-08 kpt; spin; max resid(k); each band:
  4.57E-13 2.88E-13 7.95E-13 1.72E-13 1.08E-13 2.46E-13 1.12E-11 2.35E-08
   0.1500  0.0000  0.0000    1  2.92112E-10 kpt; spin; max resid(k); each band:
  5.07E-13 1.29E-13 9.27E-13 1.43E-13 5.00E-13 5.06E-13 2.19E-12 2.92E-10
   0.1000  0.0000  0.0000    1  2.91770E-12 kpt; spin; max resid(k); each band:
  2.33E-13 5.77E-13 1.83E-13 3.49E-13 1.02E-13 5.07E-13 1.99E-13 2.92E-12
   0.0500  0.0000  0.0000    1  5.29380E-13 kpt; spin; max resid(k); each band:
  2.65E-13 1.53E-13 4.77E-13 4.97E-13 5.29E-13 3.72E-13 1.80E-13 1.12E-13
   0.0000  0.0000  0.0000    1  8.21125E-13 kpt; spin; max resid(k); each band:
  2.17E-13 1.57E-13 1.05E-13 6.10E-13 7.93E-13 4.85E-13 8.21E-13 7.02E-13
   0.0000  0.0417  0.0417    1  9.52263E-13 kpt; spin; max resid(k); each band:
  6.47E-13 9.52E-13 2.86E-13 4.88E-13 2.47E-13 3.45E-13 3.35E-13 2.21E-13
   0.0000  0.0833  0.0833    1  7.75199E-12 kpt; spin; max resid(k); each band:
  5.17E-13 5.60E-13 1.54E-13 2.76E-13 1.85E-13 2.90E-13 9.20E-13 7.75E-12
   0.0000  0.1250  0.1250    1  4.62657E-12 kpt; spin; max resid(k); each band:
  5.03E-13 1.71E-13 2.61E-13 3.80E-13 9.10E-13 8.40E-13 6.47E-13 4.63E-12
   0.0000  0.1667  0.1667    1  4.10621E-11 kpt; spin; max resid(k); each band:
  4.24E-13 1.85E-13 2.00E-13 9.85E-13 4.70E-13 7.39E-13 7.82E-13 4.11E-11
   0.0000  0.2083  0.2083    1  2.19324E-10 kpt; spin; max resid(k); each band:
  1.94E-13 1.20E-13 4.05E-13 1.58E-13 9.12E-13 2.39E-13 4.82E-12 2.19E-10
   0.0000  0.2500  0.2500    1  2.50355E-08 kpt; spin; max resid(k); each band:
  1.26E-13 9.14E-14 2.39E-13 3.29E-13 1.88E-13 4.38E-13 1.12E-09 2.50E-08
   0.0000  0.2917  0.2917    1  3.24741E-09 kpt; spin; max resid(k); each band:
  5.98E-13 8.51E-13 2.13E-13 9.47E-13 7.99E-13 9.15E-13 9.72E-10 3.25E-09
   0.0000  0.3333  0.3333    1  1.51748E-09 kpt; spin; max resid(k); each band:
  2.34E-13 9.94E-13 3.57E-13 3.79E-13 8.30E-13 2.29E-13 4.43E-10 1.52E-09
   0.0000  0.3750  0.3750    1  6.97138E-09 kpt; spin; max resid(k); each band:
  3.96E-13 2.94E-13 6.12E-13 5.57E-13 7.49E-13 1.86E-13 3.96E-10 6.97E-09
   0.0000  0.4167  0.4167    1  9.07205E-09 kpt; spin; max resid(k); each band:
  1.50E-13 1.11E-13 1.70E-13 1.45E-13 1.68E-13 2.06E-13 9.49E-10 9.07E-09
   0.0000  0.4583  0.4583    1  5.91826E-08 kpt; spin; max resid(k); each band:
  1.80E-13 2.37E-13 3.85E-13 2.17E-13 7.50E-13 5.52E-13 1.35E-08 5.92E-08
   0.0000  0.5000  0.5000    1  1.49552E-04 kpt; spin; max resid(k); each band:
  5.75E-13 1.01E-13 5.77E-13 9.56E-13 4.02E-13 6.75E-13 1.55E-07 1.50E-04
   0.0588  0.5294  0.5294    1  1.64408E-06 kpt; spin; max resid(k); each band:
  1.61E-13 1.39E-13 2.00E-13 1.26E-13 3.15E-13 2.22E-13 1.64E-06 1.30E-07
   0.1176  0.5588  0.5588    1  9.71739E-06 kpt; spin; max resid(k); each band:
  9.11E-13 5.57E-13 9.74E-14 1.01E-13 9.13E-13 8.22E-13 1.27E-06 9.72E-06
   0.1765  0.5882  0.5882    1  2.53526E-04 kpt; spin; max resid(k); each band:
  1.04E-13 3.28E-13 6.65E-13 6.89E-13 1.42E-13 2.07E-13 2.71E-05 2.54E-04
   0.2353  0.6176  0.6176    1  1.74610E-05 kpt; spin; max resid(k); each band:
  6.23E-13 3.51E-13 6.83E-14 2.21E-13 2.71E-13 1.25E-13 1.92E-06 1.75E-05
   0.2941  0.6471  0.6471    1  1.49726E-06 kpt; spin; max resid(k); each band:
  5.25E-13 1.25E-13 2.08E-13 1.41E-13 8.17E-13 8.01E-13 1.83E-07 1.50E-06
   0.3529  0.6765  0.6765    1  2.00745E-07 kpt; spin; max resid(k); each band:
  5.73E-13 1.94E-13 8.63E-13 1.16E-13 8.48E-14 7.93E-13 1.08E-11 2.01E-07
   0.4118  0.7059  0.7059    1  2.40998E-07 kpt; spin; max resid(k); each band:
  5.14E-13 6.42E-13 1.88E-13 2.28E-13 5.50E-13 7.39E-13 5.02E-10 2.41E-07
   0.4706  0.7353  0.7353    1  1.81356E-07 kpt; spin; max resid(k); each band:
  9.57E-13 2.06E-13 9.37E-13 7.02E-13 3.23E-13 7.69E-13 2.02E-11 1.81E-07
   0.5294  0.7647  0.7647    1  1.01029E-09 kpt; spin; max resid(k); each band:
  2.77E-13 4.25E-13 1.87E-13 1.29E-13 1.72E-13 7.10E-13 7.60E-12 1.01E-09
   0.5882  0.7941  0.7941    1  3.97452E-08 kpt; spin; max resid(k); each band:
  5.80E-13 9.08E-14 1.10E-13 2.11E-13 6.52E-13 4.78E-13 5.04E-13 3.97E-08
   0.6471  0.8235  0.8235    1  8.83852E-07 kpt; spin; max resid(k); each band:
  7.26E-13 2.97E-13 9.63E-13 4.50E-13 3.11E-13 7.35E-13 1.75E-12 8.84E-07
   0.7059  0.8529  0.8529    1  4.53498E-07 kpt; spin; max resid(k); each band:
  8.61E-13 5.14E-13 1.89E-13 4.57E-13 7.47E-13 4.38E-13 8.07E-13 4.53E-07
   0.7647  0.8824  0.8824    1  8.53797E-08 kpt; spin; max resid(k); each band:
  1.76E-13 1.91E-13 9.88E-13 4.67E-13 2.18E-13 7.91E-13 1.46E-12 8.54E-08
   0.8235  0.9118  0.9118    1  1.74837E-10 kpt; spin; max resid(k); each band:
  7.82E-13 1.87E-13 4.44E-13 1.59E-13 6.33E-13 3.07E-13 3.88E-13 1.75E-10
   0.8824  0.9412  0.9412    1  8.29627E-12 kpt; spin; max resid(k); each band:
  7.58E-13 3.84E-13 5.30E-13 2.10E-13 1.58E-13 9.93E-13 8.77E-13 8.30E-12
   0.9412  0.9706  0.9706    1  6.30856E-12 kpt; spin; max resid(k); each band:
  6.88E-13 5.02E-13 5.56E-14 1.23E-13 3.89E-13 5.13E-13 1.41E-13 6.31E-12
   1.0000  1.0000  1.0000    1  6.34049E-13 kpt; spin; max resid(k); each band:
  5.82E-13 3.49E-13 4.55E-13 3.17E-13 3.45E-13 2.86E-13 6.34E-13 2.68E-13
 reduced coordinates (array xred) for    2 atoms
       0.000000000000      0.000000000000      0.000000000000
       0.250000000000      0.250000000000      0.250000000000
 
 cartesian coordinates (angstrom) at end:
    1      0.00000000000000     0.00000000000000     0.00000000000000
    2      1.35165088504101     1.35165088504101     1.35165088504101
 length scales= 10.217000000000 10.217000000000 10.217000000000 bohr
              =  5.406603540164  5.406603540164  5.406603540164 angstroms
 prteigrs : about to open file /home/users/y/g/ygillet/MySims/wholedata/test3/test3o_DS2_EIG
 Eigenvalues (   eV  ) for nkpt=  40  k points:
 kpt#   1, nband=  8, wtk=  1.00000, kpt=  0.5000  0.0000  0.0000 (reduced coord)
  -3.78986  -1.16032   4.69394   4.69394   7.38389   9.23579   9.23579  13.45362
 kpt#   2, nband=  8, wtk=  1.00000, kpt=  0.4500  0.0000  0.0000 (reduced coord)
  -3.92924  -0.95942   4.71019   4.71019   7.40286   9.25271   9.25271  13.48580
 kpt#   3, nband=  8, wtk=  1.00000, kpt=  0.4000  0.0000  0.0000 (reduced coord)
  -4.25583  -0.44579   4.76452   4.76452   7.46440   9.30898   9.30898  13.57380
 kpt#   4, nband=  8, wtk=  1.00000, kpt=  0.3500  0.0000  0.0000 (reduced coord)
  -4.64158   0.24736   4.85457   4.85457   7.56450   9.38020   9.38020  13.64212
 kpt#   5, nband=  8, wtk=  1.00000, kpt=  0.3000  0.0000  0.0000 (reduced coord)
  -5.01877   1.05179   4.97950   4.97950   7.69973   9.42850   9.42850  13.42529
 kpt#   6, nband=  8, wtk=  1.00000, kpt=  0.2500  0.0000  0.0000 (reduced coord)
  -5.35842   1.93088   5.13616   5.13616   7.87017   9.40042   9.40042  12.70479
 kpt#   7, nband=  8, wtk=  1.00000, kpt=  0.2000  0.0000  0.0000 (reduced coord)
  -5.64522   2.86060   5.31982   5.31982   8.06502   9.25622   9.25622  11.85317
 kpt#   8, nband=  8, wtk=  1.00000, kpt=  0.1500  0.0000  0.0000 (reduced coord)
  -5.87283   3.81434   5.51839   5.51839   8.26479   9.01260   9.01260  10.96801
 kpt#   9, nband=  8, wtk=  1.00000, kpt=  0.1000  0.0000  0.0000 (reduced coord)
  -6.03830   4.74628   5.70919   5.70919   8.43435   8.74293   8.74293  10.10776
 kpt#  10, nband=  8, wtk=  1.00000, kpt=  0.0500  0.0000  0.0000 (reduced coord)
  -6.13776   5.54782   5.85777   5.85777   8.50041   8.52820   8.52820   9.41786
 kpt#  11, nband=  8, wtk=  1.00000, kpt=  0.0000  0.0000  0.0000 (reduced coord)
  -6.17102   5.91515   5.91515   5.91515   8.44524   8.44524   8.44524   9.17125
 kpt#  12, nband=  8, wtk=  1.00000, kpt=  0.0000  0.0417  0.0417 (reduced coord)
  -6.14024   5.71289   5.78442   5.78442   8.36645   8.61214   8.61214   9.36598
 kpt#  13, nband=  8, wtk=  1.00000, kpt=  0.0000  0.0833  0.0833 (reduced coord)
  -6.04794   5.21207   5.46953   5.46953   8.15192   9.03530   9.03530   9.81362
 kpt#  14, nband=  8, wtk=  1.00000, kpt=  0.0000  0.1250  0.1250 (reduced coord)
  -5.89384   4.56875   5.08418   5.08418   7.86175   9.60627   9.60627  10.21287
 kpt#  15, nband=  8, wtk=  1.00000, kpt=  0.0000  0.1667  0.1667 (reduced coord)
  -5.67959   3.86209   4.68977   4.68977   7.54297  10.13997  10.25583  10.25583
 kpt#  16, nband=  8, wtk=  1.00000, kpt=  0.0000  0.2083  0.2083 (reduced coord)
  -5.40555   3.12647   4.31689   4.31689   7.23172   9.61207  10.95217  10.95217
 kpt#  17, nband=  8, wtk=  1.00000, kpt=  0.0000  0.2500  0.2500 (reduced coord)
  -5.07297   2.37642   3.97975   3.97975   6.94764   8.96586  11.67483  11.67483
 kpt#  18, nband=  8, wtk=  1.00000, kpt=  0.0000  0.2917  0.2917 (reduced coord)
  -4.68271   1.62314   3.68845   3.68845   6.71326   8.35365  12.42265  12.42265
 kpt#  19, nband=  8, wtk=  1.00000, kpt=  0.0000  0.3333  0.3333 (reduced coord)
  -4.23796   0.87223   3.44464   3.44464   6.53194   7.80616  13.18559  13.18559
 kpt#  20, nband=  8, wtk=  1.00000, kpt=  0.0000  0.3750  0.3750 (reduced coord)
  -3.74014   0.13164   3.25438   3.25438   6.41794   7.35277  13.97613  13.97613
 kpt#  21, nband=  8, wtk=  1.00000, kpt=  0.0000  0.4167  0.4167 (reduced coord)
  -3.19331  -0.59332   3.11588   3.11588   6.37215   6.98112  14.75765  14.75765
 kpt#  22, nband=  8, wtk=  1.00000, kpt=  0.0000  0.4583  0.4583 (reduced coord)
  -2.60042  -1.29474   3.03204   3.03204   6.40106   6.70134  15.50276  15.50276
 kpt#  23, nband=  8, wtk=  1.00000, kpt=  0.0000  0.5000  0.5000 (reduced coord)
  -1.96598  -1.96598   3.00347   3.00347   6.50928   6.50928  15.94976  15.95132
 kpt#  24, nband=  8, wtk=  1.00000, kpt=  0.0588  0.5294  0.5294 (reduced coord)
  -1.97792  -1.93274   2.80278   3.02897   6.53801   6.81120  15.66875  15.77575
 kpt#  25, nband=  8, wtk=  1.00000, kpt=  0.1176  0.5588  0.5588 (reduced coord)
  -2.02265  -1.83295   2.35980   3.10284   6.62392   7.56656  15.03912  15.33866
 kpt#  26, nband=  8, wtk=  1.00000, kpt=  0.1765  0.5882  0.5882 (reduced coord)
  -2.12283  -1.66817   1.90193   3.22512   6.76729   8.56415  14.31505  14.85760
 kpt#  27, nband=  8, wtk=  1.00000, kpt=  0.2353  0.6176  0.6176 (reduced coord)
  -2.31101  -1.43887   1.56002   3.39047   6.95894   9.69656  13.56836  14.15694
 kpt#  28, nband=  8, wtk=  1.00000, kpt=  0.2941  0.6471  0.6471 (reduced coord)
  -2.60189  -1.14415   1.39629   3.59876   7.20109  10.91348  12.84950  13.38101
 kpt#  29, nband=  8, wtk=  1.00000, kpt=  0.3529  0.6765  0.6765 (reduced coord)
  -2.98260  -0.78516   1.41395   3.84338   7.48544  12.02303  12.16974  12.85368
 kpt#  30, nband=  8, wtk=  1.00000, kpt=  0.4118  0.7059  0.7059 (reduced coord)
  -3.41734  -0.36279   1.58716   4.11693   7.80140  11.53825  11.85530  12.57562
 kpt#  31, nband=  8, wtk=  1.00000, kpt=  0.4706  0.7353  0.7353 (reduced coord)
  -3.86912   0.12185   1.88239   4.40940   8.13188  10.95944  11.29630  12.14874
 kpt#  32, nband=  8, wtk=  1.00000, kpt=  0.5294  0.7647  0.7647 (reduced coord)
  -4.31016   0.66771   2.27168   4.70663   8.44799  10.43649  10.75947  11.81332
 kpt#  33, nband=  8, wtk=  1.00000, kpt=  0.5882  0.7941  0.7941 (reduced coord)
  -4.72259   1.26975   2.73357   4.99526   8.71024   9.97250  10.27876  11.59603
 kpt#  34, nband=  8, wtk=  1.00000, kpt=  0.6471  0.8235  0.8235 (reduced coord)
  -5.09330   1.92878   3.25193   5.25840   8.87467   9.56854   9.85235  11.50822
 kpt#  35, nband=  8, wtk=  1.00000, kpt=  0.7059  0.8529  0.8529 (reduced coord)
  -5.41532   2.63845   3.80787   5.48118   8.92661   9.22549   9.47954  11.48384
 kpt#  36, nband=  8, wtk=  1.00000, kpt=  0.7647  0.8824  0.8824 (reduced coord)
  -5.68393   3.39109   4.37879   5.65492   8.89268   8.94407   9.15703  11.31104
 kpt#  37, nband=  8, wtk=  1.00000, kpt=  0.8235  0.9118  0.9118 (reduced coord)
  -5.89573   4.17100   4.93419   5.77862   8.72708   8.81782   8.88657  10.77424
 kpt#  38, nband=  8, wtk=  1.00000, kpt=  0.8824  0.9412  0.9412 (reduced coord)
  -6.04841   4.94318   5.42435   5.85809   8.57019   8.66237   8.71550  10.02151
 kpt#  39, nband=  8, wtk=  1.00000, kpt=  0.9412  0.9706  0.9706 (reduced coord)
  -6.14039   5.61094   5.78058   5.90136   8.47635   8.50451   8.57058   9.39219
 kpt#  40, nband=  8, wtk=  1.00000, kpt=  1.0000  1.0000  1.0000 (reduced coord)
  -6.17102   5.91515   5.91515   5.91515   8.44524   8.44524   8.44524   9.17125
 Total charge density [el/Bohr^3]
,     Maximum=    8.5805E-02  at reduced coord.    0.1000    0.1000    0.7000
,Next maximum=    8.5805E-02  at reduced coord.    0.1500    0.1500    0.5500
,     Minimum=    3.5223E-03  at reduced coord.    0.5000    0.5000    0.5000
,Next minimum=    3.5223E-03  at reduced coord.    0.7500    0.7500    0.7500
,  Integrated=    8.0000E+00

== END DATASET(S) ==============================================================
================================================================================
  
 -outvars: echo values of variables after computation  --------
        accesswff1          1
        accesswff2          0
            acell      1.0217000000E+01  1.0217000000E+01  1.0217000000E+01 Bohr
              amu      2.80855000E+01
           diemac      1.20000000E+01
             ecut      8.00000000E+00 Hartree
           enunit1          0
           enunit2          1
           etotal1    -8.8725570747E+00
            fcart1     0.0000000000E+00  0.0000000000E+00  0.0000000000E+00
                       0.0000000000E+00  0.0000000000E+00  0.0000000000E+00
           fftalg1        401
           fftalg2        512
      fft_opt_lob1          2
      fft_opt_lob2          1
           getden1          0
           getden2         -1
           iprcch1          6
           iprcch2          2
             iscf1          7
             iscf2         -2
           istwfk2       1    0    0    0    0    0    0    0    0    0
                         1    0    0    0    0    0    0    0    0    0
                         0    0    1    0    0    0    0    0    0    0
                         0    0    0    0    0    0    0    0    0    0
           jdtset        1    2
              kpt1    -1.25000000E-01 -2.50000000E-01  0.00000000E+00
                      -1.25000000E-01  5.00000000E-01  0.00000000E+00
                      -2.50000000E-01 -3.75000000E-01  0.00000000E+00
                      -1.25000000E-01 -3.75000000E-01  1.25000000E-01
                      -1.25000000E-01  2.50000000E-01  0.00000000E+00
                      -2.50000000E-01  3.75000000E-01  0.00000000E+00
                      -3.75000000E-01  5.00000000E-01  0.00000000E+00
                      -2.50000000E-01  5.00000000E-01  1.25000000E-01
                      -1.25000000E-01  0.00000000E+00  0.00000000E+00
                      -3.75000000E-01  0.00000000E+00  0.00000000E+00
              kpt2     5.00000000E-01  0.00000000E+00  0.00000000E+00
                       4.50000000E-01  0.00000000E+00  0.00000000E+00
                       4.00000000E-01  0.00000000E+00  0.00000000E+00
                       3.50000000E-01  0.00000000E+00  0.00000000E+00
                       3.00000000E-01  0.00000000E+00  0.00000000E+00
                       2.50000000E-01  0.00000000E+00  0.00000000E+00
                       2.00000000E-01  0.00000000E+00  0.00000000E+00
                       1.50000000E-01  0.00000000E+00  0.00000000E+00
                       1.00000000E-01  0.00000000E+00  0.00000000E+00
                       5.00000000E-02  0.00000000E+00  0.00000000E+00
                       0.00000000E+00  0.00000000E+00  0.00000000E+00
                       0.00000000E+00  4.16666667E-02  4.16666667E-02
                       0.00000000E+00  8.33333333E-02  8.33333333E-02
                       0.00000000E+00  1.25000000E-01  1.25000000E-01
                       0.00000000E+00  1.66666667E-01  1.66666667E-01
                       0.00000000E+00  2.08333333E-01  2.08333333E-01
                       0.00000000E+00  2.50000000E-01  2.50000000E-01
                       0.00000000E+00  2.91666667E-01  2.91666667E-01
                       0.00000000E+00  3.33333333E-01  3.33333333E-01
                       0.00000000E+00  3.75000000E-01  3.75000000E-01
                       0.00000000E+00  4.16666667E-01  4.16666667E-01
                       0.00000000E+00  4.58333333E-01  4.58333333E-01
                       0.00000000E+00  5.00000000E-01  5.00000000E-01
                       5.88235294E-02  5.29411765E-01  5.29411765E-01
                       1.17647059E-01  5.58823529E-01  5.58823529E-01
                       1.76470588E-01  5.88235294E-01  5.88235294E-01
                       2.35294118E-01  6.17647059E-01  6.17647059E-01
                       2.94117647E-01  6.47058824E-01  6.47058824E-01
                       3.52941176E-01  6.76470588E-01  6.76470588E-01
                       4.11764706E-01  7.05882353E-01  7.05882353E-01
                       4.70588235E-01  7.35294118E-01  7.35294118E-01
                       5.29411765E-01  7.64705882E-01  7.64705882E-01
                       5.88235294E-01  7.94117647E-01  7.94117647E-01
                       6.47058824E-01  8.23529412E-01  8.23529412E-01
                       7.05882353E-01  8.52941176E-01  8.52941176E-01
                       7.64705882E-01  8.82352941E-01  8.82352941E-01
                       8.23529412E-01  9.11764706E-01  9.11764706E-01
                       8.82352941E-01  9.41176471E-01  9.41176471E-01
                       9.41176471E-01  9.70588235E-01  9.70588235E-01
                       1.00000000E+00  1.00000000E+00  1.00000000E+00
           kptopt1          1
           kptopt2         -3
         kptrlatt        4   -4    4     -4    4    4     -4   -4    4
          kptrlen1     4.08680000E+01
          kptrlen2     3.00000000E+01
P           mkmem1          5
P           mkmem2         10
            natom           2
            nband1          5
            nband2          8
           nbdbuf1          0
           nbdbuf2          2
           ndtset           2
            ngfft          20      20      20
             nkpt1         10
             nkpt2         40
            npfft1          2
            npfft2          1
-           npkpt1          2
-           npkpt2          1
            nstep          10
             nsym          48
           ntypat           1
              occ      2.000000  2.000000  2.000000  2.000000  0.000000
           ortalg1         -2
           ortalg2          2
        paral_kgb1          1
        paral_kgb2          0
            rprim      0.0000000000E+00  5.0000000000E-01  5.0000000000E-01
                       5.0000000000E-01  0.0000000000E+00  5.0000000000E-01
                       5.0000000000E-01  5.0000000000E-01  0.0000000000E+00
           shiftk      5.00000000E-01  5.00000000E-01  5.00000000E-01
          spgroup         227
           strten1     3.0230748084E-05  3.0230748084E-05  3.0230748084E-05
                       0.0000000000E+00  0.0000000000E+00  0.0000000000E+00
           symrel      1  0  0   0  1  0   0  0  1      -1  0  0   0 -1  0   0  0 -1
                       0 -1  1   0 -1  0   1 -1  0       0  1 -1   0  1  0  -1  1  0
                      -1  0  0  -1  0  1  -1  1  0       1  0  0   1  0 -1   1 -1  0
                       0  1 -1   1  0 -1   0  0 -1       0 -1  1  -1  0  1   0  0  1
                      -1  0  0  -1  1  0  -1  0  1       1  0  0   1 -1  0   1  0 -1
                       0 -1  1   1 -1  0   0 -1  0       0  1 -1  -1  1  0   0  1  0
                       1  0  0   0  0  1   0  1  0      -1  0  0   0  0 -1   0 -1  0
                       0  1 -1   0  0 -1   1  0 -1       0 -1  1   0  0  1  -1  0  1
                      -1  0  1  -1  1  0  -1  0  0       1  0 -1   1 -1  0   1  0  0
                       0 -1  0   1 -1  0   0 -1  1       0  1  0  -1  1  0   0  1 -1
                       1  0 -1   0  0 -1   0  1 -1      -1  0  1   0  0  1   0 -1  1
                       0  1  0   0  0  1   1  0  0       0 -1  0   0  0 -1  -1  0  0
                       1  0 -1   0  1 -1   0  0 -1      -1  0  1   0 -1  1   0  0  1
                       0 -1  0   0 -1  1   1 -1  0       0  1  0   0  1 -1  -1  1  0
                      -1  0  1  -1  0  0  -1  1  0       1  0 -1   1  0  0   1 -1  0
                       0  1  0   1  0  0   0  0  1       0 -1  0  -1  0  0   0  0 -1
                       0  0 -1   0  1 -1   1  0 -1       0  0  1   0 -1  1  -1  0  1
                       1 -1  0   0 -1  1   0 -1  0      -1  1  0   0  1 -1   0  1  0
                       0  0  1   1  0  0   0  1  0       0  0 -1  -1  0  0   0 -1  0
                      -1  1  0  -1  0  0  -1  0  1       1 -1  0   1  0  0   1  0 -1
                       0  0  1   0  1  0   1  0  0       0  0 -1   0 -1  0  -1  0  0
                       1 -1  0   0 -1  0   0 -1  1      -1  1  0   0  1  0   0  1 -1
                       0  0 -1   1  0 -1   0  1 -1       0  0  1  -1  0  1   0 -1  1
                      -1  1  0  -1  0  1  -1  0  0       1 -1  0   1  0 -1   1  0  0
            tnons      0.0000000  0.0000000  0.0000000     0.2500000  0.2500000  0.2500000
                       0.0000000  0.0000000  0.0000000     0.2500000  0.2500000  0.2500000
                       0.0000000  0.0000000  0.0000000     0.2500000  0.2500000  0.2500000
                       0.0000000  0.0000000  0.0000000     0.2500000  0.2500000  0.2500000
                       0.0000000  0.0000000  0.0000000     0.2500000  0.2500000  0.2500000
                       0.0000000  0.0000000  0.0000000     0.2500000  0.2500000  0.2500000
                       0.0000000  0.0000000  0.0000000     0.2500000  0.2500000  0.2500000
                       0.0000000  0.0000000  0.0000000     0.2500000  0.2500000  0.2500000
                       0.0000000  0.0000000  0.0000000     0.2500000  0.2500000  0.2500000
                       0.0000000  0.0000000  0.0000000     0.2500000  0.2500000  0.2500000
                       0.0000000  0.0000000  0.0000000     0.2500000  0.2500000  0.2500000
                       0.0000000  0.0000000  0.0000000     0.2500000  0.2500000  0.2500000
                       0.0000000  0.0000000  0.0000000     0.2500000  0.2500000  0.2500000
                       0.0000000  0.0000000  0.0000000     0.2500000  0.2500000  0.2500000
                       0.0000000  0.0000000  0.0000000     0.2500000  0.2500000  0.2500000
                       0.0000000  0.0000000  0.0000000     0.2500000  0.2500000  0.2500000
                       0.0000000  0.0000000  0.0000000     0.2500000  0.2500000  0.2500000
                       0.0000000  0.0000000  0.0000000     0.2500000  0.2500000  0.2500000
                       0.0000000  0.0000000  0.0000000     0.2500000  0.2500000  0.2500000
                       0.0000000  0.0000000  0.0000000     0.2500000  0.2500000  0.2500000
                       0.0000000  0.0000000  0.0000000     0.2500000  0.2500000  0.2500000
                       0.0000000  0.0000000  0.0000000     0.2500000  0.2500000  0.2500000
                       0.0000000  0.0000000  0.0000000     0.2500000  0.2500000  0.2500000
                       0.0000000  0.0000000  0.0000000     0.2500000  0.2500000  0.2500000
           toldfe1     1.00000000E-06 Hartree
           toldfe2     0.00000000E+00 Hartree
           tolwfr1     0.00000000E+00
           tolwfr2     1.00000000E-12
            typat      1  1
         wfoptalg1         14
         wfoptalg2          0
              wtk1       0.09375    0.09375    0.09375    0.18750    0.09375    0.09375
                         0.09375    0.18750    0.03125    0.03125
              wtk2       1.00000    1.00000    1.00000    1.00000    1.00000    1.00000
                         1.00000    1.00000    1.00000    1.00000    1.00000    1.00000
                         1.00000    1.00000    1.00000    1.00000    1.00000    1.00000
                         1.00000    1.00000    1.00000    1.00000    1.00000    1.00000
                         1.00000    1.00000    1.00000    1.00000    1.00000    1.00000
                         1.00000    1.00000    1.00000    1.00000    1.00000    1.00000
                         1.00000    1.00000    1.00000    1.00000
           xangst      0.0000000000E+00  0.0000000000E+00  0.0000000000E+00
                       1.3516508850E+00  1.3516508850E+00  1.3516508850E+00
            xcart      0.0000000000E+00  0.0000000000E+00  0.0000000000E+00
                       2.5542500000E+00  2.5542500000E+00  2.5542500000E+00
             xred      0.0000000000E+00  0.0000000000E+00  0.0000000000E+00
                       2.5000000000E-01  2.5000000000E-01  2.5000000000E-01
            znucl       14.00000

================================================================================


- Timing analysis has been suppressed with timopt=0



================================================================================

 Suggested references for the acknowledgment of ABINIT usage.

 The users of ABINIT have little formal obligations with respect to the ABINIT group
 (those specified in the GNU General Public License, http://www.gnu.org/copyleft/gpl.txt).
 However, it is common practice in the scientific literature,
 to acknowledge the efforts of people that have made the research possible.
 In this spirit, please find below suggested citations of work written by ABINIT developers,
 corresponding to implementations inside of ABINIT that you have used in the present run.
 Note also that it will be of great value to readers of publications presenting these results,
 to read papers enabling them to understand the theoretical formalism and details
 of the ABINIT implementation.
 For information on why they are suggested, see also http://www.abinit.org/about/?text=acknowledgments.

 [1] Large scale ab initio calculations based on three levels of parallelization
 F. Bottin, S. Leroux, A. Knyazev, G. Zerah, Comput. Mat. Science 42, 329, (2008).
 Comment : in case paral_kgb is non-zero. Strong suggestion to cite this paper in your publications.
 This paper is also available at http://www.arxiv.org/abs/0707.3405

 [2] ABINIT : First-principles approach of materials and nanosystem properties.
 X. Gonze, B. Amadon, P.-M. Anglade, J.-M. Beuken, F. Bottin, P. Boulanger, F. Bruneval,
 D. Caliste, R. Caracas, M. Cote, T. Deutsch, L. Genovese, Ph. Ghosez, M. Giantomassi
 S. Goedecker, D.R. Hamann, P. Hermet, F. Jollet, G. Jomard, S. Leroux, M. Mancini, S. Mazevet,
 M.J.T. Oliveira, G. Onida, Y. Pouillon, T. Rangel, G.-M. Rignanese, D. Sangalli, R. Shaltaf,
 M. Torrent, M.J. Verstraete, G. Zerah, J.W. Zwanziger
 Computer Phys. Comm. 180, 2582-2615 (2009).
 Comment : the third generic paper describing the ABINIT project.
 Note that a version of this paper, that is not formatted for Computer Phys. Comm. 
 is available at http://www.abinit.org/about/ABINIT_CPC_v10.pdf .
 The licence allows the authors to put it on the Web.

 [3] A brief introduction to the ABINIT software package.
 X. Gonze, G.-M. Rignanese, M. Verstraete, J.-M. Beuken, Y. Pouillon, R. Caracas, F. Jollet,
 M. Torrent, G. Zerah, M. Mikami, Ph. Ghosez, M. Veithen, J.-Y. Raty, V. Olevano, F. Bruneval,
 L. Reining, R. Godby, G. Onida, D.R. Hamann, and D.C. Allan.
 Z. Kristallogr. 220, 558-562 (2005).
 Comment : the second generic paper describing the ABINIT project. Note that this paper
 should be cited especially if you are using the GW part of ABINIT, as several authors
 of this part are not in the list of authors of the first or third paper.
 The .pdf of the latter paper is available at http://www.abinit.org/about/zfk_0505-06_558-562.pdf.
 Note that it should not redistributed (Copyright by Oldenburg Wissenshaftverlag,
 the licence allows the authors to put it on the Web).


 And optionally :

 [4] First-principles computation of material properties : the ABINIT software project. 
 X. Gonze, J.-M. Beuken, R. Caracas, F. Detraux, M. Fuchs, G.-M. Rignanese, L. Sindic,
 M. Verstraete, G. Zerah, F. Jollet, M. Torrent, A. Roy, M. Mikami, Ph. Ghosez, J.-Y. Raty, D.C. Allan.
 Computational Materials Science 25, 478-492 (2002). http://dx.doi.org/10.1016/S0927-0256(02)00325-7
 Comment : the original paper describing the ABINIT project.

 [5] Fast radix 2, 3, 4 and 5 kernels for Fast Fourier Transformations
 on computers with overlapping multiply-add instructions.
 S. Goedecker, SIAM J. on Scientific Computing 18, 1605 (1997).
-
- Proc.   0 individual time (sec): cpu=          2.1  wall=          2.4

================================================================================

 Calculation completed.
.Delivered    0 WARNINGs and   0 COMMENTs to log file.
+Overall time at end (sec) : cpu=          8.5  wall=          9.4
